name,k,VF,density,ASA_grav,ASA_vol,LPD,PLD,volume,,,,N_atoms,,N_metal_containing_bonds,N_metal_nonmetal_bonds,N_metal_linker_bonds,formula,metal_nonmetal_ratio,metal_node_connectivity,metal_node_name,N_atoms_per_linker,linker_SMILES,N_ccs
SR_crsd_v1-8c_Zr_1_Ch_v2-4c_1anC_Ch_ntn_edge_1B_2F_Ch_2x2x1,0.27308,0.50324,1.51977,0,0,5.16393,2.91353,57061.6216,,,,3296,,1536,1536,512,C33F8H24O32Zr6,0.06185567,8,8c_Zr_1_Ch,"6,53",O:C(:O)C(:O):O___O:C(:O)C1:C:C(F):C(:C:C:1F)C(C1:C:C(F):C(:C:C:1F)C(:O):O)(C1:C:C(F):C(:C:C:1F)C(:O):O)C1:C:C(F):C(:C:C:1F)C(:O):O,1
SR_cdle_v1-4c_porphyrin_Ch_v2-4c_bicyclooctane_Ch_v3-4c_V_1_Ch_4B_fused_8H_Ch_2x2x1,0.1392,0.89928,0.218641,6037.04,1319.94,19.78498,16.17065,155801.1744,,,,2128,,144,128,128,C82H39N2O8V2,0.015267176,4,4c_V_1_Ch,"142,120",O:C(:O)C1:C:C2:C:C:C3:C:C(:C:C4:C:C:C(:C:1):C:2:C:3:4)C1:C2:C:C:C(:N:2):C(C2:C:C3:C:C:C4:C:C(:C:C5:C:C:C(:C:2):C:3:C:4:5)C(:O):O):C2:C:C:C(:[NH]:2):C(C2:C:C3:C:C:C4:C:C(:C:C5:C:C:C(:C:2):C:3:C:4:5)C(:O):O):C2:C:C:C(:N:2):C(C2:C:C3:C:C:C4:C:C(:C:C5:C:C:C(:C:2):C:3:C:4:5)C(:O):O):C2:C:C:C:1:[NH]:2___O:C(:O)C1:C:C2:C:C:C3:C:C(:C:C4:C:C:C(:C:1):C:2:C:3:4)C1=CC2(C=C(C3:C:C4:C:C:C5:C:C(:C:C6:C:C:C(:C:3):C:4:C:5:6)C(:O):O)C1C(=C2)C1:C:C2:C:C:C3:C:C(:C:C4:C:C:C(:C:1):C:2:C:3:4)C(:O):O)C1:C:C2:C:C:C3:C:C(:C:C4:C:C:C(:C:1):C:2:C:3:4)C(:O):O,1
SR_can_v1-4c_Cd_1_Ch_1B_2OH_Ch_1x1x2,0.05726,0.88558,0.308249,5031.77,1551.04,22.91011,20.59597,75568.9766,,,,888,,192,192,192,C16Cd1H8O12,0.027777778,4,4c_Cd_1_Ch,18,O:C(:O)C1:C:C(O):C(:C:C:1O)C(:O):O,1
SR_cev_v1-4c_B_Ch_v2-4c_B_Ch_v3-4c_V_1_Ch_ntn_edge_2x2x1,2.05776,0.39236,1.64675,0,0,5.08132,1.60832,14203.23078,,,,912,,216,192,192,C11H3O4V1,0.055555556,4,4c_V_1_Ch,432,O:C(:O)C1:C:C2:C(:C:C:1C(:O):O)C1:C:C3C4:C:C(C(:O):O):C(:C:C:4C4:C:C5C6:C:C(C(:O):O):C(:C:C:6C6:C:C2:C2:C:C:6C6:C:C(C(:O):O):C(:C:C:6C6:C:C7C8:C:C(C(:O):O):C(:C:C:8C8:C:C(C9:C:C(C(:O):O):C(:C:C:92)C(:O):O):C2:C:C:8C8:C:C(C(:O):O):C(:C:C:8C8:C:C9C%10:C:C(C(:O):O):C(:C:C:%10C%10:C:C(C%11:C:C(C(:O):O):C(:C:C:%112)C(:O):O):C2:C:C:%10C%10:C:C(C(:O):O):C(:C:C:%10C%10:C:C%11C%12:C:C(C(:O):O):C(:C:C:%12C%12:C:C(C%13:C:C(C(:O):O):C(:C:C:%132)C(:O):O):C2:C:C:%12C%12:C:C(C(:O):O):C(:C:C:%12C%12:C:C(C%13:C:C(C(:O):O):C(:C:C:%13C%13:C:C(C%14:C:C(C(:O):O):C(:C:C:%142)C(:O):O):C2:C:C:%13C%13:C:C(C(:O):O):C(:C:C:%13C%13:C:C(C%14:C:C(C(:O):O):C(:C:C:%14C:3:C:C:1C1:C:C(C(:O):O):C(:C:C:12)C(:O):O)C(:O):O):C1:C:C:%13C2:C:C(C(:O):O):C(:C:C:2C:7:C:C:6C2:C:C(C(:O):O):C(:C:C:2C:%11:C:C:%10C2:C:C(C(:O):O):C(:C:C:21)C(:O):O)C(:O):O)C(:O):O)C(:O):O)C(:O):O):C1:C:C:%12C2:C:C(C(:O):O):C(:C:C:2C:5:C:C:4C2:C:C(C(:O):O):C(:C:C:2C:9:C:C:8C2:C:C(C(:O):O):C(:C:C:21)C(:O):O)C(:O):O)C(:O):O)C(:O):O)C(:O):O)C(:O):O)C(:O):O)C(:O):O)C(:O):O)C(:O):O)C(:O):O)C(:O):O,1
SR_csq_v1-4c_ethene_Ch_v2-8c_Zr_1_Ch_1B_4CN_Ch_1x1x2,0.14618,0.64096,0.914308,823.96,753.353,22.63001,21.08884,33187.71163,,,,1068,,288,288,96,C46H8N16O16Zr3,0.034883721,8,8c_Zr_1_Ch,70,N#CC1:C(C#N):C(C(:O):O):C(C#N):C(C#N):C:1C(=C(C1:C(C#N):C(C#N):C(C(:O):O):C(C#N):C:1C#N)C1:C(C#N):C(C#N):C(C(:O):O):C(C#N):C:1C#N)C1:C(C#N):C(C#N):C(C(:O):O):C(C#N):C:1C#N,1
SR_cdm_v1-4c_V_1_Ch_v2-4c_V_1_Ch_1B_2NO2_Ch_2x2x1,0.70402,0.71978,0.787531,2781.77,2190.73,8.90538,5.8951,123499.1188,,,,4032,,864,768,768,C8H2N2O8V1,0.05,4,4c_V_1_Ch,20,O:C(:O)C1:C:C(:C(:C:C:1N(:O):O)C(:O):O)N(:O):O,1
SR_buh_v1-4c_bicyclooctane_Ch_v2-12c_Zr_1_Ch_v3-12c_Zr_1_Ch_ntn_edge_1TrU_Ch_1x1x1,0.26089,0.60878,1.12652,1212.16,1365.52,9.66604,4.29225,20357.00926,,,,864,,384,384,192,C27H8O16Zr3,0.058823529,12,12c_Zr_1_Ch,30,O:C(:O)C#CC1=CC2(C#CC(:O):O)C=C(C#CC(:O):O)C1C(=C2)C(:O):O,1
SR_ced_v1-3c_triazine_Ch_v2-12c_Mn_1_Ch_ntn_edge_2B_2NH2_Ch_2x2x2,0.1395,0.76318,0.533479,3704.54,1976.29,14.00357,8.64844,116164.4838,,,,3352,,336,336,144,C174H144Mn8N66O27,0.01946472,12,12c_Mn_1_Ch,136,NC1:C:C(:C(N):C:C:1C(O):O)C1:C:C(N):C(:C:C:1N)C1:N:C(:N:C(:N:1)C1:C:C(N):C(:C:C:1N)C1:C:C(N):C(:C:C:1N)C(:O):O)C1:N:C(:N:C(:N:1)C1:C:C(N):C(:C:C:1N)C1:C:C(N):C(:C:C:1N)C(:O):O)C1:C:C(N):C(:C:C:1N)C1:C:C(N):C(:C:C:1N)C(O):O,1
SR_ceh_v1-3c_pyrrole_Ch_v2-6c_Mg_1_Ch_v3-4c_bicyclooctane_Ch_1B_2CN_Ch_1x1x3,0.33047,0.50444,1.03242,0,0,5.1012,3.14774,20518.38649,,,,1026,,90,90,36,C34H11Mg1N7O4,0.017857143,6,6c_Mg_1_Ch,312,N#CC1:C:C2:C(C#N):C:C:1C1=CC34C=C5C6:C:C(C#N):C(:C:C:6C#N)C6:C:C:C(C7:C:C(C#N):C(:C:C:7C#N)C7=CC89C=C(C%10:C:C(C#N):C(:C:C:%10C#N)C%10:C:C:C2:N:%10C2:C:C(C#N):C(:C:C:2C#N)C(:O):O)C7C(=C8)C2:C:C(C#N):C(:C:C:2C#N)C2:C:C:C(C7:C:C(C#N):C(:C:C:7C#N)C7=CC8(C=C(C%10:C:C(C#N):C(:C:C:%10C#N)C%10:C:C:C(C%11:C:C(C#N):C(:C:C:%11C#N)C(=C3)C15):N:%10C1:C:C(C#N):C(:C:C:1C#N)C(:O):O)C7C(=C8)C1:C:C(C#N):C(:C:C:1C#N)C1:C:C:C(C3:C:C(C#N):C4:C:C:3C#N):N:1C1:C:C(C#N):C(:C:C:1C#N)C(:O):O)C1:C:C(C#N):C(:C:C:1C#N)C1:C:C:C(C3:C:C(C#N):C9:C:C:3C#N):N:1C1:C:C(C#N):C(:C:C:1C#N)C(:O):O):N:2C1:C:C(C#N):C(:C:C:1C#N)C(:O):O):N:6C1:C:C(C#N):C(:C:C:1C#N)C(:O):O,1
SR_crsd_v1-8c_Mn_1_Ch_v2-4c_1anC_Ch_ntn_edge_1B_2CH3_Ch_1x1x1,0.29081,0.61652,0.920273,1492.36,1373.38,6.12257,3.62377,17729.44506,,,,880,,160,160,128,C41Cl1H32Mn4N32,0.037735849,8,8c_Mn_1_Ch,"85,10",CC1:C:C(:C(C):C:C:1C1:N:N:N:N:1)C(C1:C:C(C):C(:C:C:1C)C1:N:N:N:N:1)(C1:C:C(C):C(:C:C:1C)C1:N:N:N:N:1)C1:C:C(C):C(:C:C:1C)C1:N:N:N:N:1___N1:N:N:C(:N:1)C1:N:N:N:N:1,1
SR_ceg_v1-3c_pyrrole_Ch_v2-6c_Ni_1_Ch_v3-4c_Ni_1_Ch_1B_2indole_Ch_1x1x1,0.09579,0.90374,0.228141,5819.52,1327.67,25.12179,19.8551,35578.48952,,,,434,,45,42,36,C111H61N21Ni5O19,0.023584906,"4,6","4c_Ni_1_Ch,6c_Ni_1_Ch",70,O:C(:O)C1:C:C2:C:C3:[NH]:C(:C:C:3:C:C:2:[NH]:1)C1:C:C:C(C2:C:C3:C:C4:[NH]:C(:C:C:4:C:C:3:[NH]:2)C(:O):O):N:1C1:C:C2:C:C3:[NH]:C(:C:C:3:C:C:2:[NH]:1)C(:O):O,1
SR_cdz_v1-4c_Cu_1_Ch_v2-4c_Cu_1_Ch_ntn_edge_1B_2CH3_Ch_2x1x2,0.57269,0.63666,0.967136,1468,1419.75,7.33213,6.03961,39288.18668,,,,1952,,432,384,384,C26Cu3H20O12,0.051724138,4,4c_Cu_1_Ch,"22,6",CC1:C:C(C(:O):O):C(C):C:C:1C(:O):O___O:C(:O)C(:O):O,1
SR_csq_v1-4c_ethene_Ch_v2-8c_Co_1_Ch_1B_2CH3_Ch_1x1x2,0.22147,0.64098,0.801844,1272.93,1020.69,16.92201,15.13798,21116.31889,,,,966,,120,120,96,C76Co4H64O17,0.025477707,8,8c_Co_1_Ch,78,CC1:C:C(C(:O):O):C(C):C:C:1C(=C(C1:C:C(C):C(:C:C:1C)C(:O):O)C1:C:C(C):C(:C:C:1C)C(:O):O)C1:C:C(C):C(:C:C:1C)C(:O):O,1
SR_cez_v1-4c_Cu_1_Ch_v2-6c_B_Ch_v3-3c_Cu_imadazoline_Ch_1B_2NO2_Ch_ntn_edge_1x1x1,0.19263,0.804,0.578263,4164.87,2408.39,14.31499,7.87206,35332.94358,,,,720,,126,120,120,C12Cu2H5N5O6,0.071428571,"3,4","3c_Cu_imadazoline_Ch,4c_Cu_1_Ch","48,24",C1:N:N:C:C:1C1:C(C2:C:N:N:C:2):C(C2:C:N:N:C:2):C(C2:C:N:N:C:2):C(C2:C:N:N:C:2):C:1C1:C:N:N:C:1___O:C(:O)C1:C:C(:C(:C:C:1N(:O):O)C1:C:N:N:C:1)N(:O):O,1
SR_ddc_v1-3c_Cu_imadazoline_Ch_v2-4c_1anC_Ch_ntn_edge_1TrU_Ch_1x1x1,0.10202,0.79346,0.678725,2044.22,1387.46,16.90139,9.88208,8668.223297,,,,228,,48,48,48,C9Cu2H4N4,0.117647059,3,3c_Cu_imadazoline_Ch,68,C1#CC(C#CC(C#CC(C#CC1(C1:C:N:N:C:1)C1:C:N:N:C:1)(C1:C:N:N:C:1)C1:C:N:N:C:1)(C1:C:N:N:C:1)C1:C:N:N:C:1)(C1:C:N:N:C:1)C1:C:N:N:C:1,1
SR_crs_v1-6c_CdZn_1_Ch_1B_2furan_Ch_1x1x1,0.07437,0.90586,0.310583,4196.31,1303.3,27.21443,19.94523,98469.71281,,,,1136,,256,256,192,C36Cd3H12O19Zn1,0.059701493,6,6c_CdZn_1_Ch,22,O:C(:O)C1:C:C2:C:C3:O:C(:C:C:3:C:C:2:O:1)C(:O):O,1
SR_cer_v1-3c_B_Ch_v2-6c_bicyclooctane_Ch_v3-6c_CdZn_1_Ch_ntn_edge_4B_fused_8H_Ch_2x2x1,0.15853,0.76208,0.647815,3469.32,2247.48,12.41216,8.20214,74023.07514,,,,2032,,256,256,192,C76Cd3H34O13Zn1,0.032520325,6,6c_CdZn_1_Ch,244,O:C(:O)C1:C:C(:C:C(:C:1)C1:C:C2:C:C:C3:C:C(:C:C4:C:C:C(:C:1):C:2:C:3:4)C1=C(C2:C:C3:C:C:C4:C:C(:C:C5:C:C:C(:C:2):C:3:C:4:5)C2:C:C(:C:C(:C:2)C(:O):O)C(:O):O)C2C(=C(C3:C:C4:C:C:C5:C:C(:C:C6:C:C:C(:C:3):C:4:C:5:6)C3:C:C(:C:C(:C:3)C(:O):O)C(:O):O)C1C(=C2C1:C:C2:C:C:C3:C:C(:C:C4:C:C:C(:C:1):C:2:C:3:4)C1:C:C(:C:C(:C:1)C(:O):O)C(:O):O)C1:C:C2:C:C:C3:C:C(:C:C4:C:C:C(:C:1):C:2:C:3:4)C1:C:C(:C:C(:C:1)C(:O):O)C(:O):O)C1:C:C2:C:C:C3:C:C(:C:C4:C:C:C(:C:1):C:2:C:3:4)C1:C:C(:C:C(:C:1)C(:O):O)C(:O):O)C(:O):O,1
SR_csq_v1-4c_ethene_Ch_v2-8c_Zr_1_Ch_1B_4H_Ch_1x1x2,0.20075,0.7527,0.655297,1891.81,1239.7,23.61944,23.27931,32105.57419,,,,876,,288,288,96,C30H24O16Zr3,0.042857143,8,8c_Zr_1_Ch,54,O:C(:O)C1:C:C:C(:C:C:1)C(=C(C1:C:C:C(:C:C:1)C(:O):O)C1:C:C:C(:C:C:1)C(:O):O)C1:C:C:C(:C:C:1)C(:O):O,1
SR_cut_v1-8c_Co_2_Ch_v2-3c_B_Ch_1B_2CH3_Ch_ntn_edge_2x2x3,0.3488,0.7841,0.517624,3515.52,1819.72,14.56892,10.7972,50672.8651,,,,1452,,240,240,192,C56Cl1Co4H36N24,0.034188034,8,8c_Co_2_Ch,58,CC1:C:C(C2:C:C(:C:C(:C:2)C2C:N:N:N:2)C2C:N:N:N:2):C(C):C:C:1C1:C:C(:C:C(:C:1)C1C:N:N:N:1)C1C:N:N:N:1,1
SR_csq_v1-4c_ethene_Ch_v2-8c_Co_1_Ch_1B_4F_Ch_1x1x2,0.16894,0.65746,1.02363,1071.51,1096.83,17.32291,15.24674,20658.63737,,,,678,,120,120,96,C60Co4F32O17,0.036697248,8,8c_Co_1_Ch,54,O:C(:O)C1:C(F):C(F):C(C(=C(C2:C(F):C(F):C(C(:O):O):C(F):C:2F)C2:C(F):C(F):C(C(:O):O):C(F):C:2F)C2:C(F):C(F):C(C(:O):O):C(F):C:2F):C(F):C:1F,1
SR_crsd_v1-8c_Co_1_Ch_v2-4c_bicyclooctane_Ch_1B_4H_Ch_1DoU_Ch_1x1x1,0.34052,0.62242,0.96096,1522.35,1462.92,6.8324,3.67715,14662.28123,,,,712,,160,160,128,C44Co4H24O17,0.047058824,8,8c_Co_1_Ch,"64,10",O:C(:O)C1:C:C:C(:C:C:1)C1=CC2(C=C(C3:C:C:C(:C:C:3)C(:O):O)C1C(=C2)C1:C:C:C(:C:C:1)C(:O):O)C1:C:C:C(:C:C:1)C(:O):O___O:C(:O)C=CC(:O):O,1
SR_ced_v1-3c_triazine_Ch_v2-12c_Mn_1_Ch_1B_2CN_Ch_ntn_edge_2x2x2,0.20915,0.60678,0.952036,1482.93,1411.81,8.15392,5.57602,48290.87517,,,,1816,,336,336,144,C126H24Mn8N42O27,0.03652968,12,12c_Mn_1_Ch,"72,72",N#CC1:C:C(C2:N:C(:N:C(:N:2)C2:C:C(C#N):C(:C:C:2C#N)C(:O):O)C2:N:C(:N:C(:N:2)C2:C:C(C#N):C(:C:C:2C#N)C(:O):O)C2:C:C(C#N):C(:C:C:2C#N)C(:O):O):C(C#N):C:C:1C(O):O___N#CC1:C:C(C2:N:C(:N:C(:N:2)C2:C:C(C#N):C(:C:C:2C#N)C(:O):O)C2:N:C(:N:C(:N:2)C2:C:C(C#N):C(:C:C:2C#N)C(:O):O)C2:C:C(C#N):C(:C:C:2C#N)C(O):O):C(C#N):C:C:1C(O):O,1
SR_crsd_v1-8c_Mn_1_Ch_v2-4c_1anC_Ch_ntn_edge_1B_2NH2_Ch_1x1x1,0.23078,0.63218,0.925588,1747.93,1617.86,6.14024,3.92617,17741.5463,,,,816,,160,160,128,C33Cl1H24Mn4N40,0.040816327,8,8c_Mn_1_Ch,"10,77",N1:N:N:C(:N:1)C1:N:N:N:N:1___NC1:C:C(:C(N):C:C:1C1:N:N:N:N:1)C(C1:C:C(N):C(:C:C:1N)C1:N:N:N:N:1)(C1:C:C(N):C(:C:C:1N)C1:N:N:N:N:1)C1:C:C(N):C(:C:C:1N)C1:N:N:N:N:1,1
SR_crs_v1-6c_CdZn_1_Ch_1B_2NO2_Ch_1x1x1,0.07025,0.80776,0.653005,2410.34,1573.96,17.08595,11.82476,48049.07122,,,,1040,,256,256,192,C24Cd3H6N6O25Zn1,0.06557377,6,6c_CdZn_1_Ch,20,O:C(:O)C1:C:C(:C(:C:C:1N(:O):O)C(:O):O)N(:O):O,1
SR_cdl_v1-4c_Cu_1_Ch_1B_2TrU_Ch_1x1x1,0.25635,0.914,0.214144,6887.99,1475.02,18.99153,11.93966,68415.00837,,,,672,,144,128,128,C12Cu1H4O4,0.05,4,4c_Cu_1_Ch,20,O:C(:O)C#CC1:C:C:C(C#CC(:O):O):C:C:1,1
SR_cds_v1-4c_V_1_Ch_1B_2NH2_Ch_2x2x2,0.48006,0.75628,0.630621,4053.78,2556.4,9.43838,5.78721,82607.13394,,,,2688,,576,512,512,C8H6N2O4V1,0.05,4,4c_V_1_Ch,20,NC1:C:C(C(:O):O):C(N):C:C:1C(:O):O,1
SR_buh_v1-4c_bicyclooctane_Ch_v2-12c_Eu_1_Ch_v3-12c_Eu_1_Ch_ntn_edge_1TrU_Ch_1x1x1,0.21157,0.61122,1.35579,863.196,1170.32,9.72917,4.05428,20543.61004,,,,864,,384,384,192,C27Eu3H8O16,0.058823529,12,12c_Eu_1_Ch,30,O:C(:O)C#CC1=CC2(C#CC(:O):O)C=C(C#CC(:O):O)C1C(=C2)C(:O):O,1
SR_cer_v1-3c_triazine_Ch_v2-6c_bicyclooctane_Ch_v3-6c_Zn_1_Ch_2B_4H_Ch_1x1x1,0.10566,0.89832,0.227117,6378.37,1448.64,19.81363,15.75608,73768.38114,,,,904,,64,64,48,C127H73N9O13Zn4,0.018018018,6,6c_Zn_1_Ch,442,O:C(:O)C1:C:C:C(:C:C:1)C1:C:C:C(:C:C:1)C1:N:C(:N:C(:N:1)C1:C:C:C(:C:C:1)C1:C:C:C(:C:C:1)C(:O):O)C1:C:C:C(:C:C:1)C1:C:C:C(:C:C:1)C1=C(C2:C:C:C(:C:C:2)C2:C:C:C(:C:C:2)C2:N:C(:N:C(:N:2)C2:C:C:C(:C:C:2)C2:C:C:C(:C:C:2)C(:O):O)C2:C:C:C(:C:C:2)C2:C:C:C(:C:C:2)C(:O):O)C2C(=C(C3:C:C:C(:C:C:3)C3:C:C:C(:C:C:3)C3:N:C(:N:C(:N:3)C3:C:C:C(:C:C:3)C3:C:C:C(:C:C:3)C(:O):O)C3:C:C:C(:C:C:3)C3:C:C:C(:C:C:3)C(:O):O)C1C(=C2C1:C:C:C(:C:C:1)C1:C:C:C(:C:C:1)C1:N:C(:N:C(:N:1)C1:C:C:C(:C:C:1)C1:C:C:C(:C:C:1)C(:O):O)C1:C:C:C(:C:C:1)C1:C:C:C(:C:C:1)C(:O):O)C1:C:C:C(:C:C:1)C1:C:C:C(:C:C:1)C1:N:C(:N:C(:N:1)C1:C:C:C(:C:C:1)C1:C:C:C(:C:C:1)C(:O):O)C1:C:C:C(:C:C:1)C1:C:C:C(:C:C:1)C(:O):O)C1:C:C:C(:C:C:1)C1:C:C:C(:C:C:1)C1:N:C(:N:C(:N:1)C1:C:C:C(:C:C:1)C1:C:C:C(:C:C:1)C(:O):O)C1:C:C:C(:C:C:1)C1:C:C:C(:C:C:1)C(:O):O,1
SR_cdle_v1-4c_Ni_1_Ch_v2-4c_bicyclooctane_Ch_v3-4c_Ni_1_Ch_1B_2F_Ch_2x2x1,0.1818,0.82278,0.488658,4189.45,2047.21,11.71838,9.17025,51033.51011,,,,1072,,216,192,192,C34F8H10Ni3O12,0.046875,4,4c_Ni_1_Ch,"16,64",O:C(:O)C1:C:C(F):C(:C:C:1F)C(:O):O___O:C(:O)C1:C:C(F):C(:C:C:1F)C1=CC2(C=C(C3:C:C(F):C(:C:C:3F)C(:O):O)C1C(=C2)C1:C:C(F):C(:C:C:1F)C(:O):O)C1:C:C(F):C(:C:C:1F)C(:O):O,1
SR_buh_v1-4c_1anC_Ch_v2-12c_Zr_1_Ch_v3-12c_Zr_1_Ch_2B_fused_Ch_1x1x1,0.2223,0.68984,0.7467,2642.02,1972.8,11.75251,4.96381,49080.89753,,,,1992,,384,384,192,C135H76O32Zr6,0.024691358,12,12c_Zr_1_Ch,77,O:C(:O)C1:C:C:C2:C:C(:C:C:C:2:C:1)C(C1:C:C:C2:C:C(:C:C:C:2:C:1)C(:O):O)(C1:C:C:C2:C:C(:C:C:C:2:C:1)C(:O):O)C1:C:C:C2:C:C(:C:C:C:2:C:1)C(:O):O,1
SR_ces_v1-4c_B_Ch_v2-6c_Cr_1_Ch_v3-4c_porphyrin_Ch_2B_4F_Ch_1x1x1,0.17038,0.84922,0.397229,4040.7,1605.08,22.52149,12.54602,45243.17509,,,,674,,30,30,24,C198Cr3F96H21N6O13,0.008982036,6,6c_Cr_1_Ch,,None,1
SR_ceq_v1-6c_Cr_1_Ch_v2-6c_bicyclooctane_Ch_v3-3c_B_Ch_1B_2SH_Ch_2x2x2,0.15635,0.7373,0.59669,3222.3,1922.71,11.5913,8.94699,92625.68287,,,,2496,,120,120,96,C166Cr3H94O13S36,0.009708738,6,6c_Cr_1_Ch,,None,1
SR_ceg_v1-3c_triazine_Ch_v2-6c_Ni_1_Ch_v3-4c_Ni_1_Ch_2B_fused_Ch_ntn_edge_2x2x2,0.21557,0.79274,0.571883,3692.5,2111.68,12.74835,9.21031,70903.47931,,,,1600,,360,336,288,C48H19N9Ni5O19,0.052631579,"4,6","4c_Ni_1_Ch,6c_Ni_1_Ch",31,O:C(:O)C1:C:C:C2:C:C(:C:C:C:2:C:1)C1:N:C(:N:C(:N:1)C(:O):O)C(:O):O,1
SR_ced_v1-3c_triazine_Ch_v2-12c_Mn_1_Ch_1B_2CN_Ch_2x2x2,0.22247,0.63792,0.853487,1951.65,1665.71,8.43418,5.28531,60717.28988,,,,2104,,336,336,144,C150H30Mn8N48O27,0.031372549,12,12c_Mn_1_Ch,"84,84",N#CC1:C:C(C2:N:C(:N:C(:N:2)C2:C:C(C#N):C(:C:C:2C#N)C2:N:C(:N:C(:N:2)C2:C:C(C#N):C(:C:C:2C#N)C(:O):O)C2:C:C(C#N):C(:C:C:2C#N)C(:O):O)C2:C:C(C#N):C(:C:C:2C#N)C(:O):O):C(C#N):C:C:1C(O):O___N#CC1:C:C(C2:N:C(:N:C(:N:2)C2:C:C(C#N):C(:C:C:2C#N)C2:N:C(:N:C(:N:2)C2:C:C(C#N):C(:C:C:2C#N)C(:O):O)C2:C:C(C#N):C(:C:C:2C#N)C(O):O)C2:C:C(C#N):C(:C:C:2C#N)C(:O):O):C(C#N):C:C:1C(O):O,1
SR_buh_v1-4c_1anC_Ch_v2-12c_Zr_1_Ch_v3-12c_Zr_1_Ch_1B_2SH_Ch_1x1x1,0.22236,0.48142,1.37037,0,0,7.27707,2.6529,28376.46413,,,,1608,,384,384,192,C87H52O32S24Zr6,0.030769231,12,12c_Zr_1_Ch,61,O:C(:O)C1:C:C(S):C(:C:C:1S)C(C1:C:C(S):C(:C:C:1S)C(:O):O)(C1:C:C(S):C(:C:C:1S)C(:O):O)C1:C:C(S):C(:C:C:1S)C(:O):O,1
SR_ceh_v1-3c_triazine_Ch_v2-6c_Mg_1_Ch_v3-4c_bicyclooctane_Ch_1DoU_Ch_1TrU_Ch_2x2x5,0.3431,0.49786,1.09969,216.11,237.655,5.7772,4.14252,67883.1393,,,,3360,,600,600,240,C15H5Mg1N3O4,0.037037037,6,6c_Mg_1_Ch,,None,1
SR_brl_v1-4c_V_1_Ch_v2-4c_1anC_Ch_1B_2indole_Ch_1x1x2,0.19633,0.86136,0.319009,5398.15,1722.06,18.16673,14.59076,44590.58388,,,,744,,54,48,48,C33H18N6O4V1,0.016393443,4,4c_V_1_Ch,366,O:C(:O)C1:C:C2:C:C3:[NH]:C(:C:C:3:C:C:2:[NH]:1)C1(C2:C:C3:C:C4:[NH]:C(:C:C:4:C:C:3:[NH]:2)C(:O):O)C2:C:C3:C:C4:[NH]:C(:C:C:4:C:C:3:[NH]:2)C(C2:C:C3:C:C4:[NH]:C(:C:C:4:C:C:3:[NH]:2)C(:O):O)(C2:C:C3:C:C4:[NH]:C(:C:C:4:C:C:3:[NH]:2)C(:O):O)C2:C:C3:C:C4:[NH]:C(:C:C:4:C:C:3:[NH]:2)C(C2:C:C3:C:C4:[NH]:C(:C:C:4:C:C:3:[NH]:2)C(:O):O)(C2:C:C3:C:C4:[NH]:C(:C:C:4:C:C:3:[NH]:2)C(:O):O)C2:C:C3:C:C4:[NH]:C(:C:C:4:C:C:3:[NH]:2)C(C2:C:C3:C:C4:[NH]:C(:C:C:4:C:C:3:[NH]:2)C(:O):O)(C2:C:C3:C:C4:[NH]:C(:C:C:4:C:C:3:[NH]:2)C(:O):O)C2:C:C3:C:C4:[NH]:C(:C:C:4:C:C:3:[NH]:2)C(C2:C:C3:C:C4:[NH]:C(:C:C:4:C:C:3:[NH]:2)C(:O):O)(C2:C:C3:C:C4:[NH]:C(:C:C:4:C:C:3:[NH]:2)C(:O):O)C2:C:C3:C:C4:[NH]:C(:C:C:4:C:C:3:[NH]:2)C(C2:C:C3:C:C4:[NH]:C(:C:C:4:C:C:3:[NH]:2)C(:O):O)(C2:C:C3:C:C4:[NH]:C(:C:C:4:C:C:3:[NH]:2)C(:O):O)C2:C:C3:C:C4:[NH]:C1:C:C:4:C:C:3:[NH]:2,1
SR_dma_v1-3c_Cu_imadazoline_Ch_v2-3c_B_Ch_2B_2CH3_Ch_1x1x1,0.0299,0.96624,0.0762429,7595.88,579.132,37.85008,31.15113,214356.0244,,,,1032,,48,48,48,C21Cu1H19N2,0.023809524,3,3c_Cu_imadazoline_Ch,"320,46",CC1:C:C(:C(C):C:C:1C1:C:N:N:C:1)C1:C:C(C):C(:C:C:1C)C1:C:C2:C:C(:C:1)C1:C:C(C):C(:C:C:1C)C1:C:C(C):C(:C:C:1C)C1:C:C(:C:C(:C:1)C1:C:C(C):C(:C:C:1C)C1:C:C(C):C(:C:C:1C)C1:C:C(:C:C(:C:1)C1:C:C(C):C(:C:C:1C)C1:C:C(C):C(:C:C:1C)C1:C:C(:C:C(:C:1)C1:C:C(C):C(:C:C:1C)C1:C:C(C):C2:C:C:1C)C1:C:C(C):C(:C:C:1C)C1:C:C(C):C(:C:C:1C)C1:C:N:N:C:1)C1:C:C(C):C(:C:C:1C)C1:C:C(C):C(:C:C:1C)C1:C:N:N:C:1)C1:C:C(C):C(:C:C:1C)C1:C:C(C):C(:C:C:1C)C1:C:N:N:C:1___CC1:C:C(:C(C):C:C:1C1:C:N:N:C:1)C1:C:C(C):C(:C:C:1C)C1:C:N:N:C:1,1
SR_ced_v1-3c_triazine_Ch_v2-12c_Mn_1_Ch_2B_2CN_Ch_2x2x1,0.14247,0.7771,0.49951,4106.55,2051.26,14.39315,8.89635,80936.0021,,,,1772,,168,168,72,C270H60Mn8N78O27,0.018390805,12,12c_Mn_1_Ch,144,N#CC1:C:C(:C(C#N):C:C:1C(O):O)C1:C:C(C#N):C(:C:C:1C#N)C1:N:C(:N:C(:N:1)C1:C:C(C#N):C(:C:C:1C#N)C1:C:C(C#N):C(:C:C:1C#N)C1:N:C(:N:C(:N:1)C1:C:C(C#N):C(:C:C:1C#N)C1:C:C(C#N):C(:C:C:1C#N)C(:O):O)C1:C:C(C#N):C(:C:C:1C#N)C1:C:C(C#N):C(:C:C:1C#N)C(O):O)C1:C:C(C#N):C(:C:C:1C#N)C1:C:C(C#N):C(:C:C:1C#N)C(:O):O,1
SR_cdm_v1-4c_Cu_1_Ch_v2-4c_Cu_1_Ch_1DoU_Ch_1B_4H_Ch_2x2x1,1.63365,0.79966,0.590264,4395.68,2594.61,11.08599,6.71638,113955.6402,,,,2880,,864,768,768,C20Cu3H10O12,0.071428571,4,4c_Cu_1_Ch,"16,10",O:C(:O)C1:C:C:C(:C:C:1)C(:O):O___O:C(:O)C=CC(:O):O,1
SR_crsd_v1-8c_Co_2_Ch_v2-4c_1anC_Ch_1B_4CN_Ch_ntn_edge_1x1x1,0.22251,0.53158,1.15618,0,0,6.21863,3.2171,17513.39332,,,,880,,160,160,128,C57Cl1Co4H8N40,0.037735849,8,8c_Co_2_Ch,"12,81",C1:N:N:N:C1C1C:N:N:N:1___N#CC1:C(C#N):C(:C(C#N):C(C#N):C:1C1C:N:N:N:1)C(C1:C(C#N):C(C#N):C(C2C:N:N:N:2):C(C#N):C:1C#N)(C1:C(C#N):C(C#N):C(C2C:N:N:N:2):C(C#N):C:1C#N)C1:C(C#N):C(C#N):C(C2C:N:N:N:2):C(C#N):C:1C#N,1
SR_ced_v1-3c_triazine_Ch_v2-12c_Mn_1_Ch_4B_fused_8H_Ch_2x2x1,0.15503,0.8106,0.427496,4500.32,1923.87,15.66181,9.97205,80755.11462,,,,1772,,168,168,72,C270H120Mn8N18O27,0.018390805,12,12c_Mn_1_Ch,144,OC(:O)C1:C:C2:C:C:C3:C:C(:C:C4:C:C:C(:C:1):C:2:C:3:4)C1:N:C(:N:C(:N:1)C1:C:C2:C:C:C3:C:C(:C:C4:C:C:C(:C:1):C:2:C:3:4)C1:N:C(:N:C(:N:1)C1:C:C2:C:C:C3:C:C(:C:C4:C:C:C(:C:1):C:2:C:3:4)C(:O):O)C1:C:C2:C:C:C3:C:C(:C:C4:C:C:C(:C:1):C:2:C:3:4)C(O):O)C1:C:C2:C:C:C3:C:C(:C:C4:C:C:C(:C:1):C:2:C:3:4)C(:O):O,1
SR_cdle_v1-4c_Ni_1_Ch_v2-4c_1anC_Ch_v3-4c_Ni_1_Ch_1B_4H_Ch_1DoU_Ch_2x2x1,0.30957,0.72658,0.741852,3327.07,2468.19,8.87671,5.77298,23357.68346,,,,792,,216,192,192,C15H8Ni2O8,0.064516129,4,4c_Ni_1_Ch,"16,29",O:C(:O)C1:C:C:C(:C:C:1)C(:O):O___O:C(:O)C=CC(C=CC(:O):O)(C=CC(:O):O)C=CC(:O):O,1
SR_cdle_v1-4c_B_Ch_v2-4c_bicyclooctane_Ch_v3-4c_Ni_1_Ch_1B_2OH_Ch_2x2x1,0.17265,0.80154,0.496252,4041.95,2005.83,11.68166,8.89667,43522.39209,,,,1152,,144,128,128,C35H19Ni2O16,0.028571429,4,4c_Ni_1_Ch,"68,72",O:C(:O)C1:C:C(O):C(:C:C:1O)C1:C:C(C2:C:C(O):C(:C:C:2O)C(:O):O):C(:C:C:1C1:C:C(O):C(:C:C:1O)C(:O):O)C1:C:C(O):C(:C:C:1O)C(:O):O___O:C(:O)C1:C:C(O):C(:C:C:1O)C1=CC2(C=C(C3:C:C(O):C(:C:C:3O)C(:O):O)C1C(=C2)C1:C:C(O):C(:C:C:1O)C(:O):O)C1:C:C(O):C(:C:C:1O)C(:O):O,1
SR_cdj_v1-3c_triazine_Ch_v2-6c_CdZn_1_Ch_2B_2NH2_Ch_1x1x1,0.06047,0.90406,0.229191,5883.27,1348.39,27.08656,15.68913,145412.2388,,,,2008,,128,128,96,C105Cd3H90N39O13Zn1,0.016194332,6,6c_CdZn_1_Ch,164,NC1:C:C(:C(N):C:C:1C(:O):O)C1:C:C(N):C(:C:C:1N)C1:N:C(:N:C(:N:1)C1:C:C(N):C(:C:C:1N)C1:C:C(N):C(:C:C:1N)C1:N:C(:N:C(:N:1)C1:C:C(N):C(:C:C:1N)C1:C:C(N):C(:C:C:1N)C(:O):O)C1:C:C(N):C(:C:C:1N)C1:C:C(N):C(:C:C:1N)C(:O):O)C1:C:C(N):C(:C:C:1N)C1:C:C(N):C(:C:C:1N)C(:O):O,1