name,k,VF,density,ASA_grav,ASA_vol,LPD,PLD,volume,,,,N_atoms,,N_metal_containing_bonds,N_metal_nonmetal_bonds,N_metal_linker_bonds,formula,metal_nonmetal_ratio,metal_node_connectivity,metal_node_name,N_atoms_per_linker,linker_SMILES,N_ccs
SR_cai_v1-5c_bicyclooctane_Ch_v2-6c_Ni_1_Ch_1DoU_Ch_2TrU_Ch_1TrU_Ch_1x1x2,0.56623,0.80748,0.494543,4179.66,2067.02,13.301,10.16263,33124.57445,,,,768,,144,144,96,C28H8N3Ni2O7,0.043478261,6,6c_Ni_1_Ch,"312,10",O:C(:O)C#CN1:C:C2:C(:C:1)C13C#CC#CC45C6:C:N7C#CC#CN8:C:C9:C(:C:8)C8%10C#CC#CC%11%12C%13:C:N%14C#CC#CN%15:C:C%16:C(:C:%15)C%15(C#CC#CC(C:6:C:7)(C6:C:N(C#CC(:O):O):C:C:64)C4:C:N(C#CC(:O):O):C:C:45)C4:C:N(C#CC(:O):O):C:C:4C%16(C#CC#CC45C6:C:N7C#CC#CN%16:C:C%17:C(:C:%16)C%16(C#CC#CC(C:%13:C:%14)(C%13:C:N(C#CC(:O):O):C:C:%13%11)C%11:C:N(C#CC(:O):O):C:C:%11%12)C%11:C:N(C#CC(:O):O):C:C:%11C%17(C#CC#CC%11%12C%13:C:N(C#CC#CN%14:C:C(:C1:C:%14)C2(C#CC#CC(C:6:C:7)(C1:C:N(C#CC(:O):O):C:C:14)C1:C:N(C#CC(:O):O):C:C:15)C1:C:N(C#CC(:O):O):C:C:13):C:C:%13C(C#CC#CC9(C1:C:N(C#CC(:O):O):C:C:18)C1:C:N(C#CC(:O):O):C:C:1%10)(C1:C:N(C#CC(:O):O):C:C:1%11)C1:C:N(C#CC(:O):O):C:C:1%12)C1:C:N(C#CC(:O):O):C:C:1%16)C1:C:N(C#CC(:O):O):C:C:1%15___O:C(:O)C=CC(:O):O,1
SR_cen_v1-12c_Eu_1_Ch_v2-4c_1anC_Ch_1TrU_Ch_1B_4H_Ch_2x2x2,0.5614,0.5329,1.62634,0,0,5.67712,2.87283,20038.32445,,,,816,,384,384,192,C26Eu3H6O16,0.0625,12,12c_Eu_1_Ch,42,O:C(:O)C#CC(C#CC(:O):O)(C#CC(:O):O)C1:C:C:C(:C:C:1)C(C#CC(:O):O)(C#CC(:O):O)C#CC(:O):O,1
SR_cdme_v1-4c_porphyrin_Ch_v2-4c_Ni_1_Ch_v3-4c_1anC_Ch_v4-4c_porphyrin_Ch_1B_2NH2_Ch_2x2x1,0.15246,0.80078,0.427627,4435.18,1896.6,11.83188,9.92891,87118.02347,,,,2552,,72,64,64,C157H112N40Ni2O8,0.006309148,4,4c_Ni_1_Ch,,None,1
SR_cez_v1-4c_Cu_1_Ch_v2-6c_B_Ch_v3-3c_Cu_imadazoline_Ch_1B_2CH3_Ch_ntn_edge_1x1x1,0.13848,0.81964,0.496014,4750.92,2356.52,14.22319,9.22981,35273.34137,,,,768,,126,120,120,C14Cu2H11N3O2,0.066666667,"3,4","3c_Cu_imadazoline_Ch,4c_Cu_1_Ch","48,26",C1:N:N:C:C:1C1:C(C2:C:N:N:C:2):C(C2:C:N:N:C:2):C(C2:C:N:N:C:2):C(C2:C:N:N:C:2):C:1C1:C:N:N:C:1___CC1:C:C(C2:C:N:N:C:2):C(C):C:C:1C(:O):O,1
SR_cdl_v1-4c_Ni_1_Ch_1B_2TrU_Ch_1x1x1,0.35618,0.91084,0.217799,6902.38,1503.33,17.66025,11.86328,66086.23951,,,,672,,144,128,128,C12H4Ni1O4,0.05,4,4c_Ni_1_Ch,20,O:C(:O)C#CC1:C:C:C(C#CC(:O):O):C:C:1,1
SR_cet_v1-3c_triazine_Ch_v2-6c_Zr_1_Ch_v3-6c_bicyclooctane_Ch_ntn_edge_1B_2NH2_Ch_2x2x1,0.15178,0.6755,0.792956,2164.07,1716.01,9.6129,7.76285,60505.49653,,,,2320,,384,384,96,C56H49N21O16Zr3,0.021126761,6,6c_Zr_1_Ch,,None,1
SR_cer_v1-3c_triazine_Ch_v2-6c_bicyclooctane_Ch_v3-6c_Zr_1_Ch_2B_2CH3_Ch_1x1x1,0.09359,0.83148,0.364693,4938.41,1801,18.37126,9.57807,67413.06529,,,,1508,,192,192,48,C163H167N9O32Zr6,0.016172507,6,6c_Zr_1_Ch,,None,1
SR_ces_v1-4c_B_Ch_v2-6c_Al_1_Ch_v3-4c_porphyrin_Ch_2B_2CN_Ch_ntn_edge_2x2x1,0.65933,0.43482,1.20233,0,0,9.00899,2.13995,32248.37406,,,,1928,,120,120,96,Al3C150H45N30O13,0.012605042,6,6c_Al_1_Ch,474,N#CC1:C:C2:C(C#N):C:C:1C1:C:C(C#N):C(:C:C:1C#N)C1:C3:C:C:C(:N:3):C3C4:C:C(C#N):C(:C:C:4C#N)C4:C:C(C#N):C(:C:C:4C#N)C4:C:C(C(:O):O):C(:C:C:4C4:C:C(C#N):C(:C:C:4C#N)C4:C:C(C#N):C(:C:C:4C#N)C4:C5:C:C:C(:N:5):C(C5:C:C(C#N):C(:C:C:5C#N)C5:C:C(C#N):C(:C:C:5C#N)C5:C:C(C(:O):O):C(:C:C:52)C(:O):O):C2:C:C:C(:[NH]:2):C2C5:C:C(C#N):C(:C:C:5C#N)C5:C:C(C#N):C(:C:C:5C#N)C5:C:C(C(:O):O):C(:C:C:5C5:C:C(C#N):C(:C:C:5C#N)C5:C:C(C#N):C(:C:C:5C#N)C5:C6:C:C:C(:N:6):C(C6:C:C(C#N):C(:C:C:6C#N)C6:C:C(C#N):C(:C:C:6C#N)C6:C:C(C(:O):O):C(:C:C:6C6:C:C(C#N):C(:C:C:6C#N)C6:C:C(C#N):C(:C:C:6C#N)C(:C6:C:C:C:2:N:6):C2:C:C:C:4:[NH]:2)C(:O):O):C2:C:C:C(:[NH]:2):C2C4:C:C(C#N):C(:C:C:4C#N)C4:C:C(C#N):C(:C:C:4C#N)C4:C:C(C(:O):O):C(:C:C:4C4:C:C(C#N):C(:C:C:4C#N)C4:C:C(C#N):C(:C:C:4C#N)C(:C4:C:C:C(:N:4):C(C4:C:C(C#N):C(:C:C:4C#N)C4:C:C(C#N):C(:C:C:4C#N)C4:C:C(C(:O):O):C(:C:C:4C4:C:C(C#N):C(:C:C:4C#N)C4:C:C(C#N):C(:C:C:4C#N)C(:C4:C:C:C:2:N:4):C2:C:C:C:5:[NH]:2)C(:O):O):C2:C:C:C:1:[NH]:2):C1:C:C:C:3:[NH]:1)C(:O):O)C(:O):O)C(:O):O,1
SR_bto_v1-3c_Cu_imadazoline_Ch_1B_2thiophene_Ch_1x1x1,0.05272,0.97304,0.0769049,6274.47,482.538,32.30067,29.26261,100586.6859,,,,288,,36,36,36,C8Cu1H4N2S1,0.066666667,3,3c_Cu_imadazoline_Ch,30,C1:N:N:C:C:1C1:C:C2:C:C3:S:C(:C:C:3:C:C:2:S:1)C1:C:N:N:C:1,1
SR_ceg_v1-3c_B_Ch_v2-6c_Zr_1_Ch_v3-4c_porphyrin_Ch_2B_4Br_Ch_ntn_edge_1x1x2,0.09698,0.71758,1.07216,1618.3,1735.08,14.7084,10.35932,41772.9434,,,,924,,96,96,24,Br48C123H35N6O16Zr3,0.013157895,6,6c_Zr_1_Ch,414,O:C(:O)C1:C:C2:C:C(:C:1)C1:C(Br):C(Br):C(:C(Br):C:1Br)C1:C(Br):C(Br):C(:C(Br):C:1Br)C1:C3:C:C:C(:N:3):C3C4:C(Br):C(Br):C(:C(Br):C:4Br)C4:C(Br):C(Br):C(C5:C:C(:C:C(:C:5)C5:C(Br):C(Br):C(:C(Br):C:5Br)C5:C(Br):C(Br):C(:C(Br):C:5Br)C5:C6:C:C:C(:N:6):C6C7:C(Br):C(Br):C(:C(Br):C:7Br)C7:C(Br):C(Br):C(C8:C:C(:C:C(:C:8)C8:C(Br):C(Br):C(:C(Br):C:8Br)C8:C(Br):C(Br):C(:C(Br):C:8Br)C8:C9:C:C:C(:N:9):C(C9:C(Br):C(Br):C(:C(Br):C:9Br)C9:C(Br):C(Br):C2:C(Br):C:9Br):C2:C:C:C(:[NH]:2):C2C9:C(Br):C(Br):C(:C(Br):C:9Br)C9:C(Br):C(Br):C(C%10:C:C(:C:C(:C:%10)C%10:C(Br):C(Br):C(:C(Br):C:%10Br)C%10:C(Br):C(Br):C(:C(Br):C:%10Br)C(:C%10:C:C:C(:N:%10):C(C%10:C(Br):C(Br):C(:C(Br):C:%10Br)C%10:C(Br):C(Br):C(C%11:C:C(:C:C(:C:%11)C%11:C(Br):C(Br):C(:C(Br):C:%11Br)C%11:C(Br):C(Br):C(:C(Br):C:%11Br)C(:C%11:C:C:C(:N:%11):C(C%11:C(Br):C(Br):C(:C(Br):C:%11Br)C%11:C(Br):C(Br):C(C%12:C:C(:C:C(:C:%12)C%12:C(Br):C(Br):C(:C(Br):C:%12Br)C%12:C(Br):C(Br):C(:C(Br):C:%12Br)C(:C%12:C:C:C:2:N:%12):C2:C:C:C:8:[NH]:2)C(:O):O):C(Br):C:%11Br):C2:C:C:C:3:[NH]:2):C2:C:C:C:1:[NH]:2)C(:O):O):C(Br):C:%10Br):C1:C:C:C:6:[NH]:1):C1:C:C:C:5:[NH]:1)C(:O):O):C(Br):C:9Br)C(:O):O):C(Br):C:7Br)C(:O):O):C(Br):C:4Br,1
SR_cee_v1-3c_pyrrole_Ch_v2-6c_Mg_1_Ch_v3-4c_porphyrin_Ch_2B_4H_Ch_1x1x2,0.13876,0.90296,0.188479,6778.05,1277.52,24.86713,23.59531,102961.887,,,,1104,,60,60,24,C52H32Mg1N3O4,0.010989011,6,6c_Mg_1_Ch,"348,348",O:C(:O)C1:C:C:C(:C:C:1)C1:C:C:C(:C:C:1)C1:C:C:C2C3:C:C:C(:C:C:3)C3:C:C:C(:C:C:3)C3:C4:C:C:C(:N:4):C4C5:C:C:C(:C:C:5)C5:C:C:C(:C:C:5)N5:C(:C:C:C:5C5:C:C:C(:C:C:5)C5:C:C:C(:C:C:5)C5:C6:C:C:C(:N:6):C(C6:C:C:C(:C:C:6)C6:C:C:C(:C:C:6)N:1:2):C1:C:C:C(:[NH]:1):C1C2:C:C:C(:C:C:2)C2:C:C:C(:C:C:2)C2:C:C:C(C6:C:C:C(:C:C:6)C6:C:C:C(:C:C:6)C(:O):O):N:2C2:C:C:C(:C:C:2)C2:C:C:C(:C:C:2)C(:C2:C:C:C(:N:2):C(C2:C:C:C(:C:C:2)C2:C:C:C(:C:C:2)C2:C:C:C(C6:C:C:C(:C:C:6)C6:C:C:C(:C:C:6)C(:O):O):N:2C2:C:C:C(:C:C:2)C2:C:C:C(:C:C:2)C(:C2:C:C:C:1:N:2):C1:C:C:C:5:[NH]:1):C1:C:C:C:4:[NH]:1):C1:C:C:C:3:[NH]:1)C1:C:C:C(:C:C:1)C1:C:C:C(:C:C:1)C(:O):O___O:C(:O)C1:C:C:C(:C:C:1)C1:C:C:C(:C:C:1)C1:C:C:C2C3:C:C:C(:C:C:3)C3:C:C:C(:C:C:3)C3:C4:C:C:C(:N:4):C4C5:C:C:C(:C:C:5)C5:C:C:C(:C:C:5)N5:C(:C:C:C:5C5:C:C:C(:C:C:5)C5:C:C:C(:C:C:5)C5:C6:C:C:C(:N:6):C(C6:C:C:C(:C:C:6)C6:C:C:C(:C:C:6)N:1:2):C1:C:C:C(:[NH]:1):C1C2:C:C:C(:C:C:2)C2:C:C:C(:C:C:2)N2:C(:C:C:C:2C2:C:C:C(:C:C:2)C2:C:C:C(:C:C:2)C(:C2:C:C:C(:N:2):C(C2:C:C:C(:C:C:2)C2:C:C:C(:C:C:2)N2:C(:C:C:C:2C2:C:C:C(:C:C:2)C2:C:C:C(:C:C:2)C(:C2:C:C:C:1:N:2):C1:C:C:C:5:[NH]:1)C1:C:C:C(:C:C:1)C1:C:C:C(:C:C:1)C(:O):O):C1:C:C:C:4:[NH]:1):C1:C:C:C:3:[NH]:1)C1:C:C:C(:C:C:1)C1:C:C:C(:C:C:1)C(:O):O)C1:C:C:C(:C:C:1)C1:C:C:C(:C:C:1)C(:O):O,1
SR_ceu_v1-4c_B_Ch_v2-6c_Ni_1_Ch_v3-4c_porphyrin_Ch_1B_2Br_Ch_2x2x1,0.17383,0.73564,0.865247,2337.5,2022.51,11.60581,8.25931,136276.8287,,,,3536,,288,288,192,Br24C126H47N6Ni4O14,0.01843318,6,6c_Ni_1_Ch,426,O:C(:O)C1:C:C(Br):C(:C:C:1Br)C1:C:C2C3:C:C(Br):C(:C:C:3Br)C3:C4:C:C:C(:N:4):C4C5:C:C(Br):C(:C:C:5Br)C5:C:C(C6:C:C(Br):C(:C:C:6Br)C(:O):O):C(:C:C:5C5:C:C(Br):C(:C:C:5Br)C5:C6:C:C:C(:N:6):C(C6:C:C(Br):C(:C:C:6Br)C:2:C:C:1C1:C:C(Br):C(:C:C:1Br)C(:O):O):C1:C:C:C(:[NH]:1):C1C2:C:C(Br):C(:C:C:2Br)C2:C:C(C6:C:C(Br):C(:C:C:6Br)C(:O):O):C(:C:C:2C2:C:C(Br):C(:C:C:2Br)C2:C6:C:C:C(:N:6):C(C6:C:C(Br):C(:C:C:6Br)C6:C:C(C7:C:C(Br):C(:C:C:7Br)C(:O):O):C(:C:C:6C6:C:C(Br):C(:C:C:6Br)C(:C6:C:C:C:1:N:6):C1:C:C:C:5:[NH]:1)C1:C:C(Br):C(:C:C:1Br)C(:O):O):C1:C:C:C(:[NH]:1):C1C5:C:C(Br):C(:C:C:5Br)C5:C:C(C6:C:C(Br):C(:C:C:6Br)C(:O):O):C(:C:C:5C5:C:C(Br):C(:C:C:5Br)C(:C5:C:C:C(:N:5):C(C5:C:C(Br):C(:C:C:5Br)C5:C:C(C6:C:C(Br):C(:C:C:6Br)C(:O):O):C(:C:C:5C5:C:C(Br):C(:C:C:5Br)C(:C5:C:C:C:1:N:5):C1:C:C:C:2:[NH]:1)C1:C:C(Br):C(:C:C:1Br)C(:O):O):C1:C:C:C:3:[NH]:1):C1:C:C:C:4:[NH]:1)C1:C:C(Br):C(:C:C:1Br)C(:O):O)C1:C:C(Br):C(:C:C:1Br)C(:O):O)C1:C:C(Br):C(:C:C:1Br)C(:O):O,1
SR_csq_v1-4c_ethene_Ch_v2-8c_Zr_1_Ch_1B_2Br_Ch_1x1x2,0.11563,0.68766,1.09931,1027.84,1129.92,21.81905,20.34491,32452.57479,,,,876,,288,288,96,Br8C30H16O16Zr3,0.042857143,8,8c_Zr_1_Ch,54,O:C(:O)C1:C:C(Br):C(:C:C:1Br)C(=C(C1:C:C(Br):C(:C:C:1Br)C(:O):O)C1:C:C(Br):C(:C:C:1Br)C(:O):O)C1:C:C(Br):C(:C:C:1Br)C(:O):O,1
SR_crsd_v1-8c_Mn_1_Ch_v2-4c_1anC_Ch_2TrU_Ch_1TrU_Ch_1x1x1,0.1649,0.74996,0.644278,3700.35,2384.05,9.22975,7.01888,21688.6951,,,,528,,160,160,128,C29Cl1Mn4N32,0.064516129,8,8c_Mn_1_Ch,"12,37",C(#CC1:N:N:N:N:1)C1:N:N:N:N:1___C(C#CC(C#CC#CC1:N:N:N:N:1)(C#CC#CC1:N:N:N:N:1)C#CC#CC1:N:N:N:N:1)#CC1:N:N:N:N:1,1
SR_cai_v1-5c_bicyclooctane_Ch_v2-6c_Zn_1_Ch_2B_2CH3_Ch_ntn_edge_1x1x3,0.41131,0.61766,0.853741,1502.95,1283.13,12.05277,10.1041,42186.22404,,,,2364,,192,192,144,C98H76N6O13Zn4,0.020725389,6,6c_Zn_1_Ch,,None,1
SR_cdm_v1-4c_V_1_Ch_v2-4c_V_1_Ch_1B_2CH3_Ch_ntn_edge_2x2x1,0.43052,0.72208,0.73102,3245.12,2372.25,9.64219,6.04474,90889.66765,,,,3392,,864,768,768,C22H16O12V3,0.06,4,4c_V_1_Ch,"22,6",CC1:C:C(C(:O):O):C(C):C:C:1C(:O):O___O:C(:O)C(:O):O,1
SR_cdl_v1-4c_Cu_1_Ch_2B_2NH2_Ch_1x1x1,0.12698,0.8618,0.334411,5681.86,1900.08,14.51133,10.16649,57810.25964,,,,1120,,144,128,128,C14Cu1H12N4O4,0.029411765,4,4c_Cu_1_Ch,34,NC1:C:C(:C(N):C:C:1C(:O):O)C1:C:C(N):C(:C:C:1N)C(:O):O,1
SR_cgs_v1-4c_Cd_1_Ch_v2-4c_bicyclooctane_Ch_v3-4c_Cd_1_Ch_v4-4c_bicyclooctane_Ch_6_edges_2x2x1,0.22112,0.63276,1.12498,1437.87,1617.58,7.40946,5.14945,36726.45446,,,,1600,,512,512,512,C12Cd1H4O8,0.041666667,4,4c_Cd_1_Ch,"6,264",O:C(:O)C(:O):O___O:C(:O)C1=CC2(C=C3C4=CC56C=C(C7=CC8(C=C(C9=CC%10(C=C(C(=C2)C31)C9C(=C%10)C(:O):O)C12C=C3C9=CC%10(C=C(C%11=CC%12(C=C(C%13=CC%14(C=C(C(=C1)C3C(=C2)C(:O):O)C%13C(=C%14)C(:O):O)C(:O):O)C%11C(=C%12)C(:O):O)C12C=C3C%11=CC%12(C=C(C%13=CC%14(C=C(C%15=CC%16(C=C(C(=C1)C3C(=C2)C(:O):O)C%15C(=C%16)C(:O):O)C(:O):O)C%13C(=C%14)C(:O):O)C12C=C3C%13=CC%14(C=C(C%15=CC5%16C=C(C5=CC%17(C=C(C(=C1)C3C(=C2)C(:O):O)C5C(=C%17)C(:O):O)C(:O):O)C%15C(=C%16)C(:O):O)C%13C(=C%14)C(:O):O)C(:O):O)C%11C(=C%12)C(:O):O)C(:O):O)C9C(=C%10)C(:O):O)C(:O):O)C7C(=C8)C(:O):O)C(:O):O)C4C(=C6)C(:O):O)C(:O):O,1
SR_ceu_v1-4c_B_Ch_v2-6c_Zr_1_Ch_v3-4c_porphyrin_Ch_2B_1TrU_Ch_1x1x1,0.10248,0.9249,0.164042,6285.34,1031.06,30.09055,24.00313,181093.8474,,,,1620,,192,192,48,C222H139N6O32Zr6,0.015037594,6,6c_Zr_1_Ch,,None,1
SR_buh_v1-4c_bicyclooctane_Ch_v2-12c_Zr_1_Ch_v3-12c_Zr_1_Ch_1B_2furan_Ch_1x1x1,0.17183,0.79972,0.510224,4003.83,2042.85,15.56249,8.39709,88050.33484,,,,2256,,384,384,192,C78H32O28Zr3,0.02173913,12,12c_Zr_1_Ch,88,O:C(:O)C1:C:C2:C:C3:O:C(:C:C:3:C:C:2:O:1)C1=CC2(C=C(C3:C:C4:C:C5:O:C(:C:C:5:C:C:4:O:3)C(:O):O)C1C(=C2)C1:C:C2:C:C3:O:C(:C:C:3:C:C:2:O:1)C(:O):O)C1:C:C2:C:C3:O:C(:C:C:3:C:C:2:O:1)C(:O):O,1
SR_cla_v1-4c_1anC_Ch_v2-4c_1anC_Ch_v3-4c_bicyclooctane_Ch_v4-4c_In_1_Ch_2B_2NH2_Ch_1x1x1,0.0445,0.90164,0.224697,5866.66,1318.22,30.79329,16.35699,379077.4074,,,,5514,,384,384,384,C1181H1032In24N328O192,0.008781559,4,4c_In_1_Ch,,None,1
SR_csi_v1-4c_In_1_Ch_v2-4c_In_1_Ch_v3-4c_In_1_Ch_1B_2F_Ch_1x1x1,0.05515,0.89554,0.315277,4387.46,1383.27,43.17741,12.62237,325508.027,,,,3960,,960,960,960,C16F4H4In1O8,0.03125,4,4c_In_1_Ch,16,O:C(:O)C1:C:C(F):C(:C:C:1F)C(:O):O,1
SR_cdj_v1-3c_triazine_Ch_v2-6c_CdZn_1_Ch_2B_2CN_Ch_ntn_edge_1x1x1,0.06715,0.86478,0.331616,5186.47,1719.92,21.52553,12.79562,97354.55977,,,,1480,,128,128,96,C111Cd3H24N33O13Zn1,0.022099448,6,6c_CdZn_1_Ch,120,N#CC1:C:C(:C(C#N):C:C:1C(:O):O)C1:C:C(C#N):C(:C:C:1C#N)C1:N:C(:N:C(:N:1)C1:C:C(C#N):C(:C:C:1C#N)C1:C:C(C#N):C(:C:C:1C#N)C(:O):O)C1:N:C(:N:C(:N:1)C1:C:C(C#N):C(:C:C:1C#N)C1:C:C(C#N):C(:C:C:1C#N)C(:O):O)C1:C:C(C#N):C(:C:C:1C#N)C1:C:C(C#N):C(:C:C:1C#N)C(:O):O,1
SR_cdj_v1-3c_pyrrole_Ch_v2-6c_CdZn_1_Ch_4B_fused_8H_Ch_1x1x1,0.0581,0.8858,0.271826,5556.88,1510.5,23.33815,13.16495,116153.4417,,,,1792,,128,128,96,C138Cd3H66N3O13Zn1,0.018181818,6,6c_CdZn_1_Ch,146,O:C(:O)C1:C:C2:C:C:C3:C:C(:C:C4:C:C:C(:C:1):C:2:C:3:4)C1:C:C:C(C2:C:C3:C:C:C4:C:C(:C:C5:C:C:C(:C:2):C:3:C:4:5)C(:O):O):N:1C1:C:C2:C:C:C3:C:C(:C:C4:C:C:C(:C:1):C:2:C:3:4)N1:C(:C:C:C:1C1:C:C2:C:C:C3:C:C(:C:C4:C:C:C(:C:1):C:2:C:3:4)C(:O):O)C1:C:C2:C:C:C3:C:C(:C:C4:C:C:C(:C:1):C:2:C:3:4)C(:O):O,1
SR_ctnd_v1-3c_Cu_imadazoline_Ch_v2-3c_B_Ch_1B_2CH3_Ch_ntn_edge_1x1x1,0.13196,0.89678,0.30399,5428.93,1650.34,15.90801,12.20338,64365.91197,,,,912,,144,144,144,C17Cu3H12N6,0.085714286,3,3c_Cu_imadazoline_Ch,"30,30",C1:N:N:C:C:1C1:C:C(:C:C(:C:1)C1:C:N:N:C:1)C1:C:N:N:C:1___CC1:C:C(C2:C:N:N:C:2):C(C):C:C:1C1:C:N:N:C:1,1
SR_ces_v1-4c_B_Ch_v2-6c_Al_1_Ch_v3-4c_porphyrin_Ch_ntn_edge_2x2x2,2.16621,0.42238,1.3407,0,0,6.90011,1.61629,23864.97804,,,,1552,,240,240,192,Al3C54H21N6O13,0.031914894,6,6c_Al_1_Ch,186,O:C(:O)C1:C:C2:C(:C:C:1C(:O):O)C1:C3:C:C:C(:N:3):C3C4:C:C(C(:O):O):C(:C:C:4C4:C5:C:C:C(:N:5):C2:C2:C:C:C(:[NH]:2):C2C5:C:C(C(:O):O):C(:C:C:5C5:C6:C:C:C(:N:6):C(C6:C:C(C(:O):O):C(:C:C:6C(:C6:C:C:C:2:N:6):C2:C:C:C:4:[NH]:2)C(:O):O):C2:C:C:C(:[NH]:2):C2C4:C:C(C(:O):O):C(:C:C:4C(:C4:C:C:C(:N:4):C(C4:C:C(C(:O):O):C(:C:C:4C(:C4:C:C:C:2:N:4):C2:C:C:C:5:[NH]:2)C(:O):O):C2:C:C:C:1:[NH]:2):C1:C:C:C:3:[NH]:1)C(:O):O)C(:O):O)C(:O):O,1
SR_cut_v1-8c_Zr_1_Ch_v2-3c_pyrrole_Ch_1B_2CH3_Ch_2x2x2,0.11028,0.74376,0.59987,2602.68,1561.27,14.3797,12.79009,60244.44314,,,,2000,,384,384,128,C52H52N2O16Zr3,0.024590164,8,8c_Zr_1_Ch,106,CC1:C:C(:C(C):C:C:1C(:O):O)C1:C:C:C(C2:C:C(C):C(:C:C:2C)C2:C:C:C(C3:C:C(C):C(:C:C:3C)C(:O):O):N:2C2:C:C(C):C(:C:C:2C)C(:O):O):N:1C1:C:C(C):C(:C:C:1C)C(:O):O,1
SR_cdme_v1-4c_Cu_1_Ch_v2-4c_B_Ch_v3-4c_1anC_Ch_v4-4c_B_Ch_1TrU_Ch_2x2x1,0.57204,0.7907,0.550489,3848.92,2118.79,10.44978,8.09763,27239.4725,,,,616,,144,128,128,C51Cu4H6O16,0.054794521,4,4c_Cu_1_Ch,"21,104",O:C(:O)C#CC(C#CC(:O):O)(C#CC(:O):O)C#CC(:O):O___O:C(:O)C#CC1:C:C(C#CC(:O):O):C2C#CC3:C:C4C#CC5:C:C(C#CC6:C:C(C#CC:1:C:2):C1C#CC2:C:C(C#CC:3:C:C:4C#CC3:C:C(C#CC:6:C:1):C(C#CC(:O):O):C:C:3C#CC(:O):O):C(C#CC(:O):O):C:C:2C#CC(:O):O):C(C#CC(:O):O):C:C:5C#CC(:O):O,1
SR_ceg_v1-3c_triazine_Ch_v2-6c_Zr_1_Ch_v3-4c_B_Ch_1B_2CH3_Ch_2x1x2,0.14972,0.8131,0.402907,4334.35,1746.34,18.31727,12.69929,72177.03806,,,,1656,,192,192,48,C93H86N9O16Zr3,0.014705882,6,6c_Zr_1_Ch,,None,1
SR_diag_v1-3c_Cu_imadazoline_Ch_1B_2CH3_Ch_1x1x1,0.02205,0.97398,0.0688537,6512.74,448.426,45.68545,37.76928,210321.3107,,,,768,,96,96,96,C7Cu1H6N2,0.066666667,3,3c_Cu_imadazoline_Ch,30,CC1:C:C(C2:C:N:N:C:2):C(C):C:C:1C1:C:N:N:C:1,1
SR_cut_v1-8c_Zr_1_Ch_v2-3c_pyrrole_Ch_2B_fused_Ch_ntn_edge_2x2x2,0.22454,0.67194,0.809214,2076.02,1679.94,9.01333,6.80711,40140.23156,,,,1744,,384,384,128,C52H36N2O16Zr3,0.028301887,8,8c_Zr_1_Ch,90,O:C(:O)C1:C:C:C2:C:C(:C:C:C:2:C:1)C1:C:C:C(C2:C:C:C3:C:C(:C:C:C:3:C:2)C(:O):O):N:1N1:C(:C:C:C:1C1:C:C:C2:C:C(:C:C:C:2:C:1)C(:O):O)C1:C:C:C2:C:C(:C:C:C:2:C:1)C(:O):O,1
SR_dma_v1-3c_Cu_imadazoline_Ch_v2-3c_B_Ch_1B_2TrU_Ch_1x1x1,0.06737,0.98036,0.0484055,8454.33,409.236,42.95045,38.80135,258724.3831,,,,600,,48,48,48,C15Cu1H7N2,0.041666667,3,3c_Cu_imadazoline_Ch,"176,28",C(#CC1:C:N:N:C:1)C1:C:C:C(C#CC2:C:C3C#CC4:C:C:C(C#CC5:C:C(C#CC6:C:C:C(C#CC7:C:N:N:C:7):C:C:6):C:C(C#CC6:C:C:C(C#CC7:C:C(C#CC8:C:C:C(C#CC9:C:N:N:C:9):C:C:8):C:C(C#CC8:C:C:C(C#CC9:C:C(C#CC%10:C:C:C(C#CC%11:C:N:N:C:%11):C:C:%10):C:C(C#CC%10:C:C:C(C#CC(:C:2):C:3):C:C:%10):C:9):C:C:8):C:7):C:C:6):C:5):C:C:4):C:C:1___C(#CC1:C:N:N:C:1)C1:C:C:C(C#CC2:C:N:N:C:2):C:C:1,1
SR_ceg_v1-3c_pyrrole_Ch_v2-6c_Zr_1_Ch_v3-4c_B_Ch_1B_2NO2_Ch_ntn_edge_2x2x2,0.18356,0.6142,0.989018,1364.16,1349.18,9.41752,5.99574,54721.57241,,,,2400,,384,384,96,C60H32N15O40Zr3,0.020408163,6,6c_Zr_1_Ch,,None,1
SR_btv_v1-5c_bicyclooctane_Ch_v2-6c_Zr_1_Ch_2B_2SH_Ch_ntn_edge_2x1x1,0.08236,0.81812,0.453249,3659.36,1658.6,22.92659,21.47994,53555.5742,,,,1120,,192,192,48,C59H45N3O16S14Zr3,0.02189781,6,6c_Zr_1_Ch,,None,1
SR_ceg_v1-3c_pyrrole_Ch_v2-6c_Ni_1_Ch_v3-4c_Ni_1_Ch_2B_4Br_Ch_1x1x1,0.04783,0.84086,0.684935,2037.52,1395.57,23.04051,18.47259,41335.62014,,,,470,,45,42,36,Br72C129H7N3Ni5O19,0.02173913,"4,6","4c_Ni_1_Ch,6c_Ni_1_Ch",76,O:C(:O)C1:C(Br):C(Br):C(:C(Br):C:1Br)C1:C(Br):C(Br):C(:C(Br):C:1Br)C1:C:C:C(C2:C(Br):C(Br):C(:C(Br):C:2Br)C2:C(Br):C(Br):C(C(:O):O):C(Br):C:2Br):N:1C1:C(Br):C(Br):C(:C(Br):C:1Br)C1:C(Br):C(Br):C(C(:O):O):C(Br):C:1Br,1
SR_diaj_v1-6c_Al_1_Ch_ntn_edge_1x1x1,0.52917,0.67724,0.933047,1342.6,1252.71,16.19663,13.05667,61676.93971,,,,2112,,1440,1440,1152,Al3C6O13,0.157894737,6,6c_Al_1_Ch,6,O:C(:O)C(:O):O,1
SR_cdle_v1-4c_V_1_Ch_v2-4c_bicyclooctane_Ch_v3-4c_V_1_Ch_1B_4F_Ch_2x2x1,0.23593,0.8083,0.550418,3700.24,2036.68,11.57155,8.89794,51128.63636,,,,1072,,216,192,192,C34F16H2O12V3,0.046875,4,4c_V_1_Ch,"16,64",O:C(:O)C1:C(F):C(F):C(C(:O):O):C(F):C:1F___O:C(:O)C1:C(F):C(F):C(C2=CC3(C=C(C4:C(F):C(F):C(C(:O):O):C(F):C:4F)C2C(=C3)C2:C(F):C(F):C(C(:O):O):C(F):C:2F)C2:C(F):C(F):C(C(:O):O):C(F):C:2F):C(F):C:1F,1
SR_cer_v1-3c_B_Ch_v2-6c_bicyclooctane_Ch_v3-6c_CdZn_1_Ch_1B_2Br_Ch_2x2x1,0.06858,0.74554,0.91325,2343.18,2139.91,10.54439,6.88061,102431.8295,,,,2320,,256,256,192,Br18C82Cd3H28O13Zn1,0.028368794,6,6c_CdZn_1_Ch,280,O:C(:O)C1:C:C(Br):C(:C:C:1Br)C1:C:C(:C:C(:C:1)C1:C:C(Br):C(:C:C:1Br)C(:O):O)C1:C:C(Br):C(:C:C:1Br)C1=C(C2:C:C(Br):C(:C:C:2Br)C2:C:C(:C:C(:C:2)C2:C:C(Br):C(:C:C:2Br)C(:O):O)C2:C:C(Br):C(:C:C:2Br)C(:O):O)C2C(=C(C3:C:C(Br):C(:C:C:3Br)C3:C:C(:C:C(:C:3)C3:C:C(Br):C(:C:C:3Br)C(:O):O)C3:C:C(Br):C(:C:C:3Br)C(:O):O)C1C(=C2C1:C:C(Br):C(:C:C:1Br)C1:C:C(:C:C(:C:1)C1:C:C(Br):C(:C:C:1Br)C(:O):O)C1:C:C(Br):C(:C:C:1Br)C(:O):O)C1:C:C(Br):C(:C:C:1Br)C1:C:C(:C:C(:C:1)C1:C:C(Br):C(:C:C:1Br)C(:O):O)C1:C:C(Br):C(:C:C:1Br)C(:O):O)C1:C:C(Br):C(:C:C:1Br)C1:C:C(:C:C(:C:1)C1:C:C(Br):C(:C:C:1Br)C(:O):O)C1:C:C(Br):C(:C:C:1Br)C(:O):O,1
SR_cez_v1-4c_porphyrin_Ch_v2-6c_Mg_1_Ch_v3-3c_pyrrole_Ch_ntn_edge_2x2x2,0.55467,0.31366,1.54085,0,0,3.40833,1.42033,39569.2297,,,,3072,,480,480,192,C16H8Mg1N3O4,0.032258065,6,6c_Mg_1_Ch,432,O:C(:O)N1:C2:C:C:C:1C1:C3:C:C:C(:N:3):C3C4:C:C:C(C5:C6:C:C:C(:N:6):C6C7:C:C:C(C8:C9:C:C:C(:N:9):C9C%10:C:C:C(C%11:C%12:C:C:C(:N:%12):C2:C2:C:C:C(:[NH]:2):C2C%12:C:C:C(C%13:C%14:C:C:C(:N:%14):C%14C%15:C:C:C(C(:C%16:C:C:C(:N:%16):C(C%16:C:C:C(C%17:C%18:C:C:C(:N:%18):C(C%18:C:C:C(C(:C%19:C:C:C:2:N:%19):C2:C:C:C:%11:[NH]:2):N:%18C(:O):O):C2:C:C:C(:[NH]:2):C2C%11:C:C:C(C%18:C%19:C:C:C(:N:%19):C%19C%20:C:C:C(C(:C%21:C:C:C(:N:%21):C(C%21:C:C:C(C%22:C%23:C:C:C(:N:%23):C(C%23:C:C:C(C(:C%24:C:C:C:2:N:%24):C2:C:C:C:%17:[NH]:2):N:%23C(:O):O):C2:C:C:C(:[NH]:2):C2C%17:C:C:C(C(:C%23:C:C:C(:N:%23):C(C%23:C:C:C(C(:C%24:C:C:C(:N:%24):C(C%24:C:C:C(C(:C%25:C:C:C(:N:%25):C(C%25:C:C:C(C(:C%26:C:C:C:2:N:%26):C2:C:C:C:%22:[NH]:2):N:%25C(:O):O):C2:C:C:C:3:[NH]:2):C2:C:C:C:1:[NH]:2):N:%24C(:O):O):C1:C:C:C:%19:[NH]:1):C1:C:C:C:%18:[NH]:1):N:%23C(:O):O):C1:C:C:C:9:[NH]:1):C1:C:C:C:8:[NH]:1):N:%17C(:O):O):N:%21C(:O):O):C1:C:C:C:%14:[NH]:1):C1:C:C:C:%13:[NH]:1):N:%20C(:O):O):N:%11C(:O):O):N:%16C(:O):O):C1:C:C:C:6:[NH]:1):C1:C:C:C:5:[NH]:1):N:%15C(:O):O):N:%12C(:O):O):N:%10C(:O):O):N:7C(:O):O):N:4C(:O):O,1
SR_csq_v1-4c_ethene_Ch_v2-8c_Zr_1_Ch_1B_2CN_Ch_1x1x2,0.12086,0.6922,0.788728,1488.77,1174.24,21.76961,19.99682,32509.26671,,,,972,,288,288,96,C38H16N8O16Zr3,0.038461538,8,8c_Zr_1_Ch,62,N#CC1:C:C(C(:O):O):C(C#N):C:C:1C(=C(C1:C:C(C#N):C(:C:C:1C#N)C(:O):O)C1:C:C(C#N):C(:C:C:1C#N)C(:O):O)C1:C:C(C#N):C(:C:C:1C#N)C(:O):O,1
SR_cdj_v1-3c_triazine_Ch_v2-6c_CdZn_1_Ch_2B_2CF3_Ch_ntn_edge_1x1x1,0.05264,0.83716,0.472988,3774.84,1785.45,20.40449,12.24328,97232.03029,,,,1864,,128,128,96,C111Cd3F72H24N9O13Zn1,0.017467249,6,6c_CdZn_1_Ch,152,O:C(:O)C1:C:C(:C(:C:C:1C(F)(F)F)C1:C:C(:C(:C:C:1C(F)(F)F)C1:N:C(:N:C(:N:1)C1:C:C(:C(:C:C:1C(F)(F)F)C1:C:C(:C(:C:C:1C(F)(F)F)C(:O):O)C(F)(F)F)C(F)(F)F)C1:N:C(:N:C(:N:1)C1:C:C(:C(:C:C:1C(F)(F)F)C1:C:C(:C(:C:C:1C(F)(F)F)C(:O):O)C(F)(F)F)C(F)(F)F)C1:C:C(:C(:C:C:1C(F)(F)F)C1:C:C(:C(:C:C:1C(F)(F)F)C(:O):O)C(F)(F)F)C(F)(F)F)C(F)(F)F)C(F)(F)F,1