name,k,VF,density,ASA_grav,ASA_vol,LPD,PLD,volume,,,,N_atoms,,N_metal_containing_bonds,N_metal_nonmetal_bonds,N_metal_linker_bonds,formula,metal_nonmetal_ratio,metal_node_connectivity,metal_node_name,N_atoms_per_linker,linker_SMILES,N_ccs
SR_dnr_v1-4c_ethene_Ch_v2-4c_Cu_1_Ch_v3-3c_Cu_imadazoline_Ch_1B_2NO2_Ch_ntn_edge_1x1x2,0.11314,0.9085,0.293966,4101.49,1205.7,42.62986,41.38102,115843.7962,,,,1092,,252,240,240,C35Cu8H16N16O16,0.096385542,"3,4","3c_Cu_imadazoline_Ch,4c_Cu_1_Ch","10,86",O:C(:O)C1:C:N:N:C:1___O:N(:O)C1:C:C(C2:C:N:N:C:2):C(:C:C:1C(=C(C1:C:C(:C(:C:C:1N(:O):O)C1:C:N:N:C:1)N(:O):O)C1:C:C(:C(:C:C:1N(:O):O)C1:C:N:N:C:1)N(:O):O)C1:C:C(:C(:C:C:1N(:O):O)C1:C:N:N:C:1)N(:O):O)N(:O):O,1
SR_dnj_v1-8c_Co_1_Ch_v2-6c_B_Ch_v3-3c_pyrrole_Ch_1B_2NH2_Ch_ntn_edge_1x1x1,0.22015,0.66126,0.805544,1784.02,1437.11,13.71234,9.90606,21766.76073,,,,1038,,120,120,96,C76Co4H56N20O17,0.023668639,8,8c_Co_1_Ch,252,NC1:C:C(:C(N):C:C:1C(:O):O)C1:C:C:C(C2:C:C(N):C(:C:C:2N)C(:O):O):N:1C1:C(:C(:C(:C(:C:1N1:C(:C:C:C:1C1:C:C(N):C(:C:C:1N)C(:O):O)C1:C:C(N):C(:C:C:1N)C(:O):O)N1:C(:C:C:C:1C1:C:C(N):C(:C:C:1N)C(:O):O)C1:C:C(N):C(:C:C:1N)C(:O):O)N1:C(:C:C:C:1C1:C:C(N):C(:C:C:1N)C(:O):O)C1:C:C(N):C(:C:C:1N)C(:O):O)N1:C(:C:C:C:1C1:C:C(N):C(:C:C:1N)C(:O):O)C1:C:C(N):C(:C:C:1N)C(:O):O)N1:C(:C:C:C:1C1:C:C(N):C(:C:C:1N)C(:O):O)C1:C:C(N):C(:C:C:1N)C(:O):O,1
SR_edq_v1-3c_B_Ch_v2-6c_Cr_1_Ch_ntn_edge_1B_2OH_Ch_1x1x1,0.17379,0.78096,0.516403,3787.21,1955.73,13.17626,9.69961,33696.68344,,,,968,,120,120,96,C60Cr3H33O25,0.025423729,6,6c_Cr_1_Ch,78,O:C(:O)C1:C:C(O):C(:C:C:1O)C1:C:C(:C:C(:C:1)C1:C:C(O):C(:C:C:1O)C(:O):O)C1:C:C(:C:C(:C:1)C1:C:C(O):C(:C:C:1O)C(:O):O)C1:C:C(O):C(:C:C:1O)C(:O):O,1
SR_dnf_v1-6c_B_Ch_v2-6c_B_Ch_v3-3c_Cu_imadazoline_Ch_1B_4F_Ch_ntn_edge_1x1x1,0.11855,0.8613,0.427783,3344.42,1430.68,23.17154,19.02371,268669.1165,,,,4512,,576,576,576,C24Cu3F8H6N6,0.068181818,3,3c_Cu_imadazoline_Ch,"48,108",C1:N:N:C:C:1C1:C(C2:C:N:N:C:2):C(C2:C:N:N:C:2):C(C2:C:N:N:C:2):C(C2:C:N:N:C:2):C:1C1:C:N:N:C:1___FC1:C(F):C(:C(F):C(F):C:1C1:C:N:N:C:1)C1:C(C2:C(F):C(F):C(C3:C:N:N:C:3):C(F):C:2F):C(C2:C(F):C(F):C(C3:C:N:N:C:3):C(F):C:2F):C(C2:C(F):C(F):C(C3:C:N:N:C:3):C(F):C:2F):C(C2:C(F):C(F):C(C3:C:N:N:C:3):C(F):C:2F):C:1C1:C(F):C(F):C(C2:C:N:N:C:2):C(F):C:1F,1
SR_epc_v1-6c_Fe_1_Ch_v2-4c_1anC_Ch_v3-4c_ethene_Ch_1TrU_Ch_1DoU_Ch_1x1x2,0.31709,0.7109,0.783557,2013.18,1577.44,14.58465,6.89064,21221.65549,,,,648,,240,240,192,C41Fe6H8O26,0.08,6,6c_Fe_1_Ch,"22,29",O:C(:O)C#CC(C#CC(:O):O)=C(C#CC(:O):O)C#CC(:O):O___O:C(:O)C=CC(C=CC(:O):O)(C=CC(:O):O)C=CC(:O):O,1
SR_dnj_v1-8c_Co_1_Ch_v2-6c_B_Ch_v3-3c_triazine_Ch_2TrU_Ch_1DoU_Ch_1x1x1,0.13959,0.83526,0.411353,3376.36,1388.87,22.16962,15.84264,33054.95793,,,,630,,120,120,96,C56Co4H16N12O17,0.03960396,8,8c_Co_1_Ch,150,O:C(:O)C=CC1:N:C(C#CC#CC2:C(C#CC#CC3:N:C(C=CC(:O):O):N:C(C=CC(:O):O):N:3):C(C#CC#CC3:N:C(C=CC(:O):O):N:C(C=CC(:O):O):N:3):C(C#CC#CC3:N:C(C=CC(:O):O):N:C(C=CC(:O):O):N:3):C(C#CC#CC3:N:C(C=CC(:O):O):N:C(C=CC(:O):O):N:3):C:2C#CC#CC2:N:C(C=CC(:O):O):N:C(C=CC(:O):O):N:2):N:C(C=CC(:O):O):N:1,1
SR_dpd_v1-4c_1anC_Ch_v2-4c_Cu_1_Ch_v3-4c_1anC_Ch_ntn_edge_1B_2TrU_Ch_1x1x1,0.14415,0.8597,0.385924,4087.43,1577.43,24.006,10.07827,50463.15006,,,,824,,216,192,192,C57Cu6H16O24,0.06185567,4,4c_Cu_1_Ch,97,O:C(:O)C(C#CC1:C:C:C(C#CC(C#CC2:C:C:C(C#CC(C(:O):O)(C(:O):O)C(:O):O):C:C:2)(C#CC2:C:C:C(C#CC(C(:O):O)(C(:O):O)C(:O):O):C:C:2)C#CC2:C:C:C(C#CC(C(:O):O)(C(:O):O)C(:O):O):C:C:2):C:C:1)(C(:O):O)C(:O):O,1
SR_dpa_v1-3c_B_Ch_v2-3c_B_Ch_v3-6c_Mg_1_Ch_ntn_edge_1B_2CN_Ch_1x1x1,0.49681,0.61388,0.856322,1412.82,1209.83,7.21269,3.67656,42155.61983,,,,1920,,480,480,192,C10H4Mg1N1O4,0.052631579,6,6c_Mg_1_Ch,90,N#CC1:C:C(C2:C:C(:C:C(:C:2)C2:C:C(C#N):C(:C:C:2C#N)C2:C:C(:C:C(:C:2)C(:O):O)C(:O):O)C2:C:C(C#N):C(:C:C:2C#N)C2:C:C(:C:C(:C:2)C(:O):O)C(:O):O):C(C#N):C:C:1C1:C:C(:C:C(:C:1)C(:O):O)C(:O):O,1
SR_dni_v1-8c_Co_1_Ch_v2-3c_triazine_Ch_v3-3c_triazine_Ch_2TrU_Ch_1DoU_Ch_1x1x1,0.12376,0.79864,0.501762,3548.91,1780.71,19.20119,7.60979,28503.93971,,,,654,,120,120,96,C56Co4H16N16O17,0.038095238,8,8c_Co_1_Ch,78,O:C(:O)C=CC1:N:C(C#CC#CC2:N:C(C#CC#CC3:N:C(C=CC(:O):O):N:C(C=CC(:O):O):N:3):N:C(C#CC#CC3:N:C(C=CC(:O):O):N:C(C=CC(:O):O):N:3):N:2):N:C(C=CC(:O):O):N:1,1
SR_eps_v1-3c_B_Ch_v2-8c_Zr_1_Ch_v3-4c_porphyrin_Ch_1B_4H_Ch_1DoU_Ch_1x1x1,0.1025,0.77534,0.554044,2984.76,1653.69,19.0706,6.38415,20600.0688,,,,612,,144,144,48,C46H35N2O16Zr3,0.03030303,8,8c_Zr_1_Ch,166,O:C(:O)C=CC1:C:C(C=CC(:O):O):C:C(:C:1)C1:C:C:C(:C:C:1)C1:C2:C:C:C(:N:2):C(C2:C:C:C(:C:C:2)C2:C:C(C=CC(:O):O):C:C(C=CC(:O):O):C:2):C2:C:C:C(:[NH]:2):C(C2:C:C:C(:C:C:2)C2:C:C(C=CC(:O):O):C:C(C=CC(:O):O):C:2):C2:C:C:C(:N:2):C(C2:C:C:C(:C:C:2)C2:C:C(C=CC(:O):O):C:C(C=CC(:O):O):C:2):C2:C:C:C:1:[NH]:2,1
SR_eft_v1-4c_porphyrin_Ch_v2-8c_Co_2_Ch_v3-3c_triazine_Ch_1B_4F_Ch_ntn_edge_2x2x3,0.67646,0.77846,0.586402,3487.14,2044.87,12.57753,10.75455,68586.10873,,,,1812,,240,240,192,C72Cl1Co4F16H18N40,0.027210884,8,8c_Co_2_Ch,146,FC1:C(F):C(:C(F):C(F):C:1C1:N:C(:N:C(:N:1)C1C:N:N:N:1)C1C:N:N:N:1)C1:C2:C:C:C(:N:2):C(C2:C(F):C(F):C(C3:N:C(:N:C(:N:3)C3C:N:N:N:3)C3C:N:N:N:3):C(F):C:2F):C2:C:C:C(:[NH]:2):C(C2:C(F):C(F):C(C3:N:C(:N:C(:N:3)C3C:N:N:N:3)C3C:N:N:N:3):C(F):C:2F):C2:C:C:C(:N:2):C(C2:C(F):C(F):C(C3:N:C(:N:C(:N:3)C3C:N:N:N:3)C3C:N:N:N:3):C(F):C:2F):C2:C:C:C:1:[NH]:2,1
SR_dnr_v1-4c_B_Ch_v2-4c_Cu_1_Ch_v3-3c_Cu_imadazoline_Ch_ntn_edge_1TrU_Ch_1x1x2,0.11406,0.92524,0.246833,4989.9,1231.67,37.16473,35.45831,121667.9644,,,,888,,252,240,240,C33Cu8H13N12O8,0.121212121,"3,4","3c_Cu_imadazoline_Ch,4c_Cu_1_Ch","36,12",C1:N:N:C:C:1C1:C:C(C2:C:N:N:C:2):C(:C:C:1C1:C:N:N:C:1)C1:C:N:N:C:1___O:C(:O)C#CC1:C:N:N:C:1,1
SR_dni_v1-8c_Co_1_Ch_v2-3c_triazine_Ch_v3-3c_triazine_Ch_2B_fused_Ch_1x1x1,0.14278,0.87296,0.282841,4979.34,1408.36,33.80653,9.37271,89266.96492,,,,1518,,120,120,96,C144Co4H72N16O17,0.016064257,8,8c_Co_1_Ch,186,O:C(:O)C1:C:C:C2:C:C(:C:C:C:2:C:1)C1:N:C(:N:C(:N:1)C1:C:C:C2:C:C(:C:C:C:2:C:1)C1:N:C(:N:C(:N:1)C1:C:C:C2:C:C(:C:C:C:2:C:1)C1:N:C(:N:C(:N:1)C1:C:C:C2:C:C(:C:C:C:2:C:1)C(:O):O)C1:C:C:C2:C:C(:C:C:C:2:C:1)C(:O):O)C1:C:C:C2:C:C(:C:C:C:2:C:1)C1:N:C(:N:C(:N:1)C1:C:C:C2:C:C(:C:C:C:2:C:1)C(:O):O)C1:C:C:C2:C:C(:C:C:C:2:C:1)C(:O):O)C1:C:C:C2:C:C(:C:C:C:2:C:1)C(:O):O,1
SR_dni_v1-8c_Co_1_Ch_v2-3c_triazine_Ch_v3-3c_B_Ch_1B_2CH3_Ch_ntn_edge_1x1x1,0.21091,0.7305,0.59009,2833.97,1672.3,18.48409,4.50365,31091.69871,,,,1206,,120,120,96,C100Co4H76N4O17,0.020304569,8,8c_Co_1_Ch,147,CC1:C:C(C2:C:C(:C:C(:C:2)C2:C:C(C):C(:C:C:2C)C(:O):O)C2:N:C(:N:C(:N:2)C2:C:C(:C:C(:C:2)C2:C:C(C):C(:C:C:2C)C(:O):O)C2:C:C(C):C(:C:C:2C)C(:O):O)C2:C:C(:C:C(:C:2)C2:C:C(C):C(:C:C:2C)C(:O):O)C2:C:C(C):C(:C:C:2C)C(:O):O):C(C):C:C:1C(:O):O,1
SR_dni_v1-8c_Co_1_Ch_v2-3c_triazine_Ch_v3-3c_B_Ch_2B_fused_Ch_1x1x1,0.1136,0.8749,0.271394,5145.45,1396.44,34.20335,8.80275,92610.1909,,,,1590,,120,120,96,C156Co4H84N4O17,0.01532567,8,8c_Co_1_Ch,195,O:C(:O)C1:C:C:C2:C:C(:C:C:C:2:C:1)C1:C:C(:C:C(:C:1)C1:C:C:C2:C:C(:C:C:C:2:C:1)C1:N:C(:N:C(:N:1)C1:C:C:C2:C:C(:C:C:C:2:C:1)C1:C:C(:C:C(:C:1)C1:C:C:C2:C:C(:C:C:C:2:C:1)C(:O):O)C1:C:C:C2:C:C(:C:C:C:2:C:1)C(:O):O)C1:C:C:C2:C:C(:C:C:C:2:C:1)C1:C:C(:C:C(:C:1)C1:C:C:C2:C:C(:C:C:C:2:C:1)C(:O):O)C1:C:C:C2:C:C(:C:C:C:2:C:1)C(:O):O)C1:C:C:C2:C:C(:C:C:C:2:C:1)C(:O):O,1
SR_epc_v1-6c_Al_1_Ch_v2-4c_1anC_Ch_v3-4c_porphyrin_Ch_2B_2NO2_Ch_1x1x1,0.09401,0.85418,0.348362,4038.23,1406.76,29.74797,21.30327,101682.6671,,,,1796,,120,120,96,Al6C197H68N56O122,0.013544018,6,6c_Al_1_Ch,"125,158",O:C(:O)C1:C:C(:C(:C:C:1N(:O):O)C1:C:C(:C(:C:C:1N(:O):O)C(C1:C:C(:C(:C:C:1N(:O):O)C1:C:C(:C(:C:C:1N(:O):O)C(:O):O)N(:O):O)N(:O):O)(C1:C:C(:C(:C:C:1N(:O):O)C1:C:C(:C(:C:C:1N(:O):O)C(:O):O)N(:O):O)N(:O):O)C1:C:C(:C(:C:C:1N(:O):O)C1:C:C(:C(:C:C:1N(:O):O)C(:O):O)N(:O):O)N(:O):O)N(:O):O)N(:O):O___O:C(:O)C1:C:C(:C(:C:C:1N(:O):O)C1:C:C(:C(:C:C:1N(:O):O)C1:C2:C:C:C(:N:2):C(C2:C:C(:C(:C:C:2N(:O):O)C2:C:C(:C(:C:C:2N(:O):O)C(:O):O)N(:O):O)N(:O):O):C2:C:C:C(:[NH]:2):C(C2:C:C(:C(:C:C:2N(:O):O)C2:C:C(:C(:C:C:2N(:O):O)C(:O):O)N(:O):O)N(:O):O):C2:C:C:C(:N:2):C(C2:C:C(:C(:C:C:2N(:O):O)C2:C:C(:C(:C:C:2N(:O):O)C(:O):O)N(:O):O)N(:O):O):C2:C:C:C:1:[NH]:2)N(:O):O)N(:O):O,1
SR_eci_v1-8c_Zr_1_Ch_1B_2CN_Ch_2x1x1,0.15548,0.61496,1.09437,1326.64,1451.84,9.51526,5.4009,42224.93349,,,,1760,,768,768,256,C20H12N4O16Zr3,0.057692308,8,8c_Zr_1_Ch,18,N#CC1:C:C(C(:O):O):C(C#N):C:C:1C(:O):O,1
SR_eft_v1-4c_porphyrin_Ch_v2-8c_Co_1_Ch_v3-3c_B_Ch_ntn_edge_1B_2NO2_Ch_2x2x2,0.15355,0.69432,0.760537,2216.13,1685.45,11.91623,6.9197,44359.87689,,,,1688,,160,160,128,C100Co4H38N20O49,0.019323671,8,8c_Co_1_Ch,206,O:C(:O)C1:C:C(:C(:C:C:1N(:O):O)C1:C:C(:C:C(:C:1)C1:C2:C:C:C(:N:2):C(C2:C:C(:C:C(:C:2)C2:C:C(:C(:C:C:2N(:O):O)C(:O):O)N(:O):O)C2:C:C(:C(:C:C:2N(:O):O)C(:O):O)N(:O):O):C2:C:C:C(:[NH]:2):C(C2:C:C(:C:C(:C:2)C2:C:C(:C(:C:C:2N(:O):O)C(:O):O)N(:O):O)C2:C:C(:C(:C:C:2N(:O):O)C(:O):O)N(:O):O):C2:C:C:C(:N:2):C(C2:C:C(:C:C(:C:2)C2:C:C(:C(:C:C:2N(:O):O)C(:O):O)N(:O):O)C2:C:C(:C(:C:C:2N(:O):O)C(:O):O)N(:O):O):C2:C:C:C:1:[NH]:2)C1:C:C(:C(:C:C:1N(:O):O)C(:O):O)N(:O):O)N(:O):O,1
SR_epo_v1-3c_pyrrole_Ch_v2-6c_Ni_1_Ch_v3-4c_Ni_1_Ch_1B_2CH3_Ch_ntn_edge_1x1x1,0.25905,0.54724,1.22655,853.288,1046.6,8.9821,5.83928,13633.86204,,,,844,,198,192,144,C90H64N6Ni11O40,0.055,"4,6","4c_Ni_1_Ch,6c_Ni_1_Ch",32,CC1:C:C(:C(C):C:C:1C(:O):O)N1:C(:C:C:C:1C(:O):O)C(:O):O,1
SR_dni_v1-8c_Co_1_Ch_v2-3c_triazine_Ch_v3-3c_triazine_Ch_1B_4H_Ch_1DoU_Ch_1x1x1,0.16749,0.81594,0.43401,4097.89,1778.52,24.32732,6.78876,39790.69158,,,,942,,120,120,96,C80Co4H40N16O17,0.026143791,8,8c_Co_1_Ch,114,O:C(:O)C1:C:C:C(:C:C:1)C1:N:C(C=CC2:N:C(C=CC3:N:C(:N:C(:N:3)C3:C:C:C(:C:C:3)C(:O):O)C3:C:C:C(:C:C:3)C(:O):O):N:C(C=CC3:N:C(:N:C(:N:3)C3:C:C:C(:C:C:3)C(:O):O)C3:C:C:C(:C:C:3)C(:O):O):N:2):N:C(:N:1)C1:C:C:C(:C:C:1)C(:O):O,1
SR_epp_v1-4c_B_Ch_v2-3c_Cu_imadazoline_Ch_v3-6c_B_Ch_1B_2Br_Ch_1x1x1,0.05011,0.9399,0.213423,3506.33,748.331,55.09855,29.67292,425581.7155,,,,2832,,288,288,288,Br6C31Cu3H13N6,0.053571429,3,3c_Cu_imadazoline_Ch,"108,76",BrC1:C:C(:C(Br):C:C:1C1:C:N:N:C:1)C1:C(C2:C:C(Br):C(:C:C:2Br)C2:C:N:N:C:2):C(C2:C:C(Br):C(:C:C:2Br)C2:C:N:N:C:2):C(C2:C:C(Br):C(:C:C:2Br)C2:C:N:N:C:2):C(C2:C:C(Br):C(:C:C:2Br)C2:C:N:N:C:2):C:1C1:C:C(Br):C(:C:C:1Br)C1:C:N:N:C:1___BrC1:C:C(:C(Br):C:C:1C1:C:N:N:C:1)C1:C:C(C2:C:C(Br):C(:C:C:2Br)C2:C:N:N:C:2):C(:C:C:1C1:C:C(Br):C(:C:C:1Br)C1:C:N:N:C:1)C1:C:C(Br):C(:C:C:1Br)C1:C:N:N:C:1,1
SR_epe_v1-4c_Ni_1_Ch_v2-3c_pyrrole_Ch_v3-4c_porphyrin_Ch_2B_2F_Ch_1x1x1,0.06646,0.96086,0.0967149,5568.82,538.588,76.79035,38.63012,791026.8002,,,,3960,,216,192,192,C94F24H33N4Ni2O8,0.012269939,4,4c_Ni_1_Ch,326,O:C(:O)C1:C:C(F):C(:C:C:1F)C1:C:C(F):C(:C:C:1F)C1:C:C:C(C2:C:C(F):C(:C:C:2F)C2:C:C(F):C(:C:C:2F)C(:O):O):N:1C1:C:C(F):C(:C:C:1F)C1:C:C(F):C(:C:C:1F)C1:C2:C:C:C(:N:2):C(C2:C:C(F):C(:C:C:2F)C2:C:C(F):C(:C:C:2F)N2:C(:C:C:C:2C2:C:C(F):C(:C:C:2F)C2:C:C(F):C(:C:C:2F)C(:O):O)C2:C:C(F):C(:C:C:2F)C2:C:C(F):C(:C:C:2F)C(:O):O):C2:C:C:C(:[NH]:2):C(C2:C:C(F):C(:C:C:2F)C2:C:C(F):C(:C:C:2F)N2:C(:C:C:C:2C2:C:C(F):C(:C:C:2F)C2:C:C(F):C(:C:C:2F)C(:O):O)C2:C:C(F):C(:C:C:2F)C2:C:C(F):C(:C:C:2F)C(:O):O):C2:C:C:C(:N:2):C(C2:C:C(F):C(:C:C:2F)C2:C:C(F):C(:C:C:2F)N2:C(:C:C:C:2C2:C:C(F):C(:C:C:2F)C2:C:C(F):C(:C:C:2F)C(:O):O)C2:C:C(F):C(:C:C:2F)C2:C:C(F):C(:C:C:2F)C(:O):O):C2:C:C:C:1:[NH]:2,1
SR_dpe_v1-6c_Zr_1_Ch_v2-8c_Zr_1_Ch_v3-4c_porphyrin_Ch_1TrU_Ch_1x1x1,0.10108,0.7136,0.855428,2449.08,2095.01,15.47581,4.61432,30542.77543,,,,1014,,528,528,144,C144H142N12O176Zr33,0.069620253,"6,8","6c_Zr_1_Ch,8c_Zr_1_Ch","8,54",O:C(:O)C#CC(:O):O___O:C(:O)C#CC1:C2:C:C:C(:N:2):C(C#CC(:O):O):C2:C:C:C(:[NH]:2):C(C#CC(:O):O):C2:C:C:C(:N:2):C(C#CC(:O):O):C2:C:C:C:1:[NH]:2,1
SR_eps_v1-3c_triazine_Ch_v2-8c_Co_2_Ch_v3-4c_porphyrin_Ch_1B_2OH_Ch_ntn_edge_2x2x2,0.19949,0.6123,0.956567,0,0,11.65189,2.83324,77562.58027,,,,3816,,480,480,384,C72Cl1Co4H34N40O8,0.025806452,8,8c_Co_2_Ch,154,OC1:C:C(:C(O):C:C:1C1:N:C(:N:C(:N:1)C1C:N:N:N:1)C1C:N:N:N:1)C1:C2:C:C:C(:N:2):C(C2:C:C(O):C(:C:C:2O)C2:N:C(:N:C(:N:2)C2C:N:N:N:2)C2C:N:N:N:2):C2:C:C:C(:[NH]:2):C(C2:C:C(O):C(:C:C:2O)C2:N:C(:N:C(:N:2)C2C:N:N:N:2)C2C:N:N:N:2):C2:C:C:C(:N:2):C(C2:C:C(O):C(:C:C:2O)C2:N:C(:N:C(:N:2)C2C:N:N:N:2)C2C:N:N:N:2):C2:C:C:C:1:[NH]:2,1
SR_ecn_v1-8c_Mn_1_Ch_1B_2NO2_Ch_1x1x1,0.3914,0.6828,0.845848,2165.21,1831.44,9.63575,6.24773,59247.06154,,,,1818,,360,360,288,C32Cl1H8Mn4N40O16,0.041237113,8,8c_Mn_1_Ch,24,O:N(:O)C1:C:C(C2:N:N:N:N:2):C(:C:C:1C1:N:N:N:N:1)N(:O):O,1
SR_epo_v1-3c_pyrrole_Ch_v2-6c_Ni_1_Ch_v3-4c_Ni_1_Ch_1B_2CH3_Ch_1x1x1,0.10047,0.82916,0.393663,4150.17,1633.77,21.10963,13.54317,63655.81105,,,,1612,,198,192,144,C186H160N6Ni11O40,0.028061224,"4,6","4c_Ni_1_Ch,6c_Ni_1_Ch",64,CC1:C:C(:C(C):C:C:1C(:O):O)C1:C:C:C(C2:C:C(C):C(:C:C:2C)C(:O):O):N:1C1:C:C(C):C(:C:C:1C)C(:O):O,1
SR_dpa_v1-3c_B_Ch_v2-3c_B_Ch_v3-6c_Mg_1_Ch_1DoU_Ch_1TrU_Ch_1x1x1,0.2637,0.7272,0.581856,4255.2,2475.91,8.48564,5.08091,55188.98535,,,,1824,,480,480,192,C9H5Mg1O4,0.055555556,6,6c_Mg_1_Ch,84,O:C(:O)C=CC1:C:C(C#CC2:C:C(C#CC3:C:C(C=CC(:O):O):C:C(C=CC(:O):O):C:3):C:C(C#CC3:C:C(C=CC(:O):O):C:C(C=CC(:O):O):C:3):C:2):C:C(C=CC(:O):O):C:1,1
SR_epe_v1-4c_Cu_1_Ch_v2-3c_Cu_imadazoline_Ch_v3-4c_Cu_1_Ch_ntn_edge_1B_4Br_Ch_1x1x1,0.02987,0.95732,0.17576,3134.33,550.889,67.49969,34.41254,634686.23,,,,2616,,612,576,576,Br16C48Cu9H12N12O12,0.09,"3,4","3c_Cu_imadazoline_Ch,4c_Cu_1_Ch","20,10",O:C(:O)C1:C(Br):C(Br):C(C2:C:N:N:C:2):C(Br):C:1Br___O:C(:O)C1:C:N:N:C:1,1
SR_eps_v1-3c_pyrrole_Ch_v2-8c_Co_2_Ch_v3-4c_porphyrin_Ch_1B_2F_Ch_1x1x1,0.16907,0.84596,0.372613,4233.66,1577.51,27.39454,9.9861,36299.83757,,,,705,,60,60,48,C124Cl1Co4F24H50N32,0.017316017,8,8c_Co_2_Ch,230,FC1:C:C(:C(F):C:C:1C1C:N:N:N:1)C1:C:C:C(C2:C:C(F):C(:C:C:2F)C2C:N:N:N:2):N:1C1:C:C(F):C(:C:C:1F)C1:C2:C:C:C(:N:2):C(C2:C:C(F):C(:C:C:2F)N2:C(:C:C:C:2C2:C:C(F):C(:C:C:2F)C2C:N:N:N:2)C2:C:C(F):C(:C:C:2F)C2C:N:N:N:2):C2:C:C:C(:[NH]:2):C(C2:C:C(F):C(:C:C:2F)N2:C(:C:C:C:2C2:C:C(F):C(:C:C:2F)C2C:N:N:N:2)C2:C:C(F):C(:C:C:2F)C2C:N:N:N:2):C2:C:C:C(:N:2):C(C2:C:C(F):C(:C:C:2F)N2:C(:C:C:C:2C2:C:C(F):C(:C:C:2F)C2C:N:N:N:2)C2:C:C(F):C(:C:C:2F)C2C:N:N:N:2):C2:C:C:C:1:[NH]:2,1
SR_ecv_v1-8c_Mn_1_Ch_1TrU_Ch_2x2x1,0.44904,0.7551,0.678853,3188.29,2164.38,10.51053,7.94166,140213.2367,,,,3392,,1280,1280,1024,C16Cl1Mn4N32,0.081632653,8,8c_Mn_1_Ch,12,C(#CC1:N:N:N:N:1)C1:N:N:N:N:1,1
SR_dni_v1-8c_Co_1_Ch_v2-3c_B_Ch_v3-3c_B_Ch_2B_2Br_Ch_1x1x1,0.0855,0.87572,0.440374,3101.09,1365.64,35.96071,10.54226,149748.9818,,,,1902,,120,120,96,Br48C184Co4H64O17,0.012779553,8,8c_Co_1_Ch,234,O:C(:O)C1:C:C(Br):C(:C:C:1Br)C1:C:C(Br):C(:C:C:1Br)C1:C:C(:C:C(:C:1)C1:C:C(Br):C(:C:C:1Br)C1:C:C(Br):C(:C:C:1Br)C1:C:C(:C:C(:C:1)C1:C:C(Br):C(:C:C:1Br)C1:C:C(Br):C(:C:C:1Br)C1:C:C(:C:C(:C:1)C1:C:C(Br):C(:C:C:1Br)C1:C:C(Br):C(:C:C:1Br)C(:O):O)C1:C:C(Br):C(:C:C:1Br)C1:C:C(Br):C(:C:C:1Br)C(:O):O)C1:C:C(Br):C(:C:C:1Br)C1:C:C(Br):C(:C:C:1Br)C1:C:C(:C:C(:C:1)C1:C:C(Br):C(:C:C:1Br)C1:C:C(Br):C(:C:C:1Br)C(:O):O)C1:C:C(Br):C(:C:C:1Br)C1:C:C(Br):C(:C:C:1Br)C(:O):O)C1:C:C(Br):C(:C:C:1Br)C1:C:C(Br):C(:C:C:1Br)C(:O):O,1
SR_dnu_v1-4c_ethene_Ch_v2-8c_Mn_1_Ch_v3-4c_ethene_Ch_1B_2CH3_Ch_1x1x1,0.25776,0.6126,0.795226,1711.59,1361.1,14.56036,4.40808,65402.88057,,,,3756,,240,240,192,C148Cl1H128Mn4N32,0.012944984,8,8c_Mn_1_Ch,,None,1
SR_eps_v1-3c_pyrrole_Ch_v2-8c_Co_1_Ch_v3-4c_porphyrin_Ch_1B_2TrU_Ch_1x1x1,0.09235,0.92158,0.165353,7143.94,1181.27,39.4693,14.62937,80029.11651,,,,777,,60,60,48,C164Co4H66N8O17,0.015686275,8,8c_Co_1_Ch,254,O:C(:O)C#CC1:C:C:C(C#CC2:C:C:C(C#CC3:C:C:C(C#CC(:O):O):C:C:3):N:2C#CC2:C:C:C(C#CC3:C4:C:C:C(:N:4):C(C#CC4:C:C:C(C#CN5:C(C#CC6:C:C:C(C#CC(:O):O):C:C:6):C:C:C:5C#CC5:C:C:C(C#CC(:O):O):C:C:5):C:C:4):C4:C:C:C(:[NH]:4):C(C#CC4:C:C:C(C#CN5:C(C#CC6:C:C:C(C#CC(:O):O):C:C:6):C:C:C:5C#CC5:C:C:C(C#CC(:O):O):C:C:5):C:C:4):C4:C:C:C(:N:4):C(C#CC4:C:C:C(C#CN5:C(C#CC6:C:C:C(C#CC(:O):O):C:C:6):C:C:C:5C#CC5:C:C:C(C#CC(:O):O):C:C:5):C:C:4):C4:C:C:C:3:[NH]:4):C:C:2):C:C:1,1
SR_eps_v1-3c_B_Ch_v2-8c_Zr_1_Ch_v3-4c_porphyrin_Ch_ntn_edge_1B_4F_Ch_1x1x1,0.0904,0.78764,0.585761,2506.96,1468.48,24.19201,9.10328,25209.53217,,,,636,,144,144,48,C50F16H19N2O16Zr3,0.029126214,8,8c_Zr_1_Ch,174,O:C(:O)C1:C(F):C(F):C(C2:C:C(:C:C(:C:2)C2:C3:C:C:C(:N:3):C(C3:C:C(:C:C(:C:3)C3:C(F):C(F):C(C(:O):O):C(F):C:3F)C3:C(F):C(F):C(C(:O):O):C(F):C:3F):C3:C:C:C(:[NH]:3):C(C3:C:C(:C:C(:C:3)C3:C(F):C(F):C(C(:O):O):C(F):C:3F)C3:C(F):C(F):C(C(:O):O):C(F):C:3F):C3:C:C:C(:N:3):C(C3:C:C(:C:C(:C:3)C3:C(F):C(F):C(C(:O):O):C(F):C:3F)C3:C(F):C(F):C(C(:O):O):C(F):C:3F):C3:C:C:C:2:[NH]:3)C2:C(F):C(F):C(C(:O):O):C(F):C:2F):C(F):C:1F,1
SR_eft_v1-4c_porphyrin_Ch_v2-8c_Co_1_Ch_v3-3c_pyrrole_Ch_ntn_edge_1B_2NH2_Ch_2x2x2,0.18568,0.63536,0.852881,2065.74,1761.83,7.21744,5.2939,32770.67429,,,,1624,,160,160,128,C92Co4H66N24O17,0.020100503,8,8c_Co_1_Ch,198,NC1:C:C(:C(N):C:C:1C(:O):O)C1:C:C:C(C2:C3:C:C:C(:N:3):C(C3:C:C:C(C4:C:C(N):C(:C:C:4N)C(:O):O):N:3C3:C:C(N):C(:C:C:3N)C(:O):O):C3:C:C:C(:[NH]:3):C(C3:C:C:C(C4:C:C(N):C(:C:C:4N)C(:O):O):N:3C3:C:C(N):C(:C:C:3N)C(:O):O):C3:C:C:C(:N:3):C(C3:C:C:C(C4:C:C(N):C(:C:C:4N)C(:O):O):N:3C3:C:C(N):C(:C:C:3N)C(:O):O):C3:C:C:C:2:[NH]:3):N:1C1:C:C(N):C(:C:C:1N)C(:O):O,1
SR_dni_v1-8c_Zr_1_Ch_v2-3c_B_Ch_v3-3c_B_Ch_1B_2CH3_Ch_1x1x1,0.10859,0.79582,0.458209,3770.04,1727.46,24.20443,7.60852,61363.16263,,,,1812,,288,288,96,C68H64O16Zr3,0.02027027,8,8c_Zr_1_Ch,198,CC1:C:C(C2:C:C(:C:C(:C:2)C2:C:C(C):C(:C:C:2C)C2:C:C(:C:C(:C:2)C2:C:C(C):C(:C:C:2C)C2:C:C(:C:C(:C:2)C2:C:C(C):C(:C:C:2C)C(:O):O)C2:C:C(C):C(:C:C:2C)C(:O):O)C2:C:C(C):C(:C:C:2C)C2:C:C(:C:C(:C:2)C2:C:C(C):C(:C:C:2C)C(:O):O)C2:C:C(C):C(:C:C:2C)C(:O):O)C2:C:C(C):C(:C:C:2C)C(:O):O):C(C):C:C:1C(:O):O,1
SR_epe_v1-4c_Ni_1_Ch_v2-3c_triazine_Ch_v3-4c_Ni_1_Ch_ntn_edge_1x1x1,0.15821,0.81336,0.623862,2463.94,1537.16,22.17494,9.90376,38091.91774,,,,792,,324,288,288,C4N2Ni1O4,0.1,4,4c_Ni_1_Ch,15,O:C(:O)C1:N:C(:N:C(:N:1)C(:O):O)C(:O):O,1
SR_epba_v1-4c_bicyclooctane_Ch_v2-3c_triazine_Ch_v3-3c_triazine_Ch_v4-3c_Cu_imadazoline_Ch_6_edges_1x1x1,0.05655,0.92602,0.169175,6967.65,1178.75,26.18965,19.09803,91052.06334,,,,752,,48,48,48,C62Cu3H14N15,0.032967033,3,3c_Cu_imadazoline_Ch,,None,1
SR_eci_v1-8c_Zr_1_Ch_1DoU_Ch_2x2x2,0.1657,0.59764,1.27935,1077.33,1378.29,8.76175,5.36035,109205.0319,,,,4992,,3072,3072,1024,C8H12O16Zr3,0.083333333,8,8c_Zr_1_Ch,10,O:C(:O)C=CC(:O):O,1
SR_eft_v1-4c_porphyrin_Ch_v2-8c_Zr_1_Ch_v3-3c_B_Ch_1B_2NO2_Ch_2x1x2,0.10806,0.7829,0.551694,3100.61,1710.59,12.99108,10.65324,45407.21133,,,,1200,,192,192,64,C62H31N14O40Zr3,0.020408163,8,8c_Zr_1_Ch,262,O:C(:O)C1:C:C(:C(:C:C:1N(:O):O)C1:C:C(:C:C(:C:1)C1:C:C(:C(:C:C:1N(:O):O)C1:C2:C:C:C(:N:2):C(C2:C:C(:C(:C:C:2N(:O):O)C2:C:C(:C:C(:C:2)C2:C:C(:C(:C:C:2N(:O):O)C(:O):O)N(:O):O)C2:C:C(:C(:C:C:2N(:O):O)C(:O):O)N(:O):O)N(:O):O):C2:C:C:C(:[NH]:2):C(C2:C:C(:C(:C:C:2N(:O):O)C2:C:C(:C:C(:C:2)C2:C:C(:C(:C:C:2N(:O):O)C(:O):O)N(:O):O)C2:C:C(:C(:C:C:2N(:O):O)C(:O):O)N(:O):O)N(:O):O):C2:C:C:C(:N:2):C(C2:C:C(:C(:C:C:2N(:O):O)C2:C:C(:C:C(:C:2)C2:C:C(:C(:C:C:2N(:O):O)C(:O):O)N(:O):O)C2:C:C(:C(:C:C:2N(:O):O)C(:O):O)N(:O):O)N(:O):O):C2:C:C:C:1:[NH]:2)N(:O):O)C1:C:C(:C(:C:C:1N(:O):O)C(:O):O)N(:O):O)N(:O):O,1
SR_eft_v1-4c_porphyrin_Ch_v2-8c_Mn_1_Ch_v3-3c_pyrrole_Ch_1B_2NO2_Ch_1x1x2,0.24605,0.75326,0.607113,3191.08,1937.34,11.51123,8.97661,19268.85983,,,,550,,40,40,32,C116Cl1H42Mn4N64O48,0.014760148,8,8c_Mn_1_Ch,270,O:N(:O)C1:C:C(:C(:C:C:1C1:N:N:N:N:1)N(:O):O)C1:C:C:C(C2:C:C(:C(:C:C:2N(:O):O)C2:C3:C:C:C(:N:3):C(C3:C:C(:C(:C:C:3N(:O):O)C3:C:C:C(C4:C:C(:C(:C:C:4N(:O):O)C4:N:N:N:N:4)N(:O):O):N:3C3:C:C(:C(:C:C:3N(:O):O)C3:N:N:N:N:3)N(:O):O)N(:O):O):C3:C:C:C(:[NH]:3):C(C3:C:C(:C(:C:C:3N(:O):O)C3:C:C:C(C4:C:C(:C(:C:C:4N(:O):O)C4:N:N:N:N:4)N(:O):O):N:3C3:C:C(:C(:C:C:3N(:O):O)C3:N:N:N:N:3)N(:O):O)N(:O):O):C3:C:C:C(:N:3):C(C3:C:C(:C(:C:C:3N(:O):O)C3:C:C:C(C4:C:C(:C(:C:C:4N(:O):O)C4:N:N:N:N:4)N(:O):O):N:3C3:C:C(:C(:C:C:3N(:O):O)C3:N:N:N:N:3)N(:O):O)N(:O):O):C3:C:C:C:2:[NH]:3)N(:O):O):N:1C1:C:C(:C(:C:C:1N(:O):O)C1:N:N:N:N:1)N(:O):O,1