name,k,VF,density,ASA_grav,ASA_vol,LPD,PLD,volume,,,,N_atoms,,N_metal_containing_bonds,N_metal_nonmetal_bonds,N_metal_linker_bonds,formula,metal_nonmetal_ratio,metal_node_connectivity,metal_node_name,N_atoms_per_linker,linker_SMILES,N_ccs
SR_kagd_v1-8c_Mn_1_Ch_v2-5c_bicyclooctane_Ch_ntn_edge_2B_2CF3_Ch_2x2x2,0.40907,0.5834,1.11021,975.855,1083.4,5.72649,4.06199,58991.00542,,,,2480,,320,320,256,C68Cl1F24H20Mn4N38,0.026490066,8,8c_Mn_1_Ch,"280,10",FC(F)(F)C1:C:C2:C(:C:C:1C1:C:C(:C(:C:C:1C(F)(F)F)C13C4:C:N(:C:C:4C(C4:C:C(:C(:C:C:4C(F)(F)F)C4:C:C(:C(:C:C:4C(F)(F)F)C45C6:C:N(:C:C:6C(C6:C:C(:C(:C:C:6C(F)(F)F)C6:C:C(:C(:C:C:6C(F)(F)F)C67C8:C:N(:C:C:8C(C8:C:C(:C(:C:C:8C(F)(F)F)C8:C:C(:C(:C:C:8C(F)(F)F)C89C%10:C:N(:C:C:%10C2(C2:C:N(:C:C:28)C2:N:N:N:N:2)C2:C:N(:C:C:29)C2:N:N:N:N:2)C2:N:N:N:N:2)C(F)(F)F)C(F)(F)F)(C2:C:N(:C:C:26)C2:N:N:N:N:2)C2:C:N(:C:C:27)C2:N:N:N:N:2)C2:N:N:N:N:2)C(F)(F)F)C(F)(F)F)(C2:C:N(:C:C:24)C2:N:N:N:N:2)C2:C:N(:C:C:25)C2:N:N:N:N:2)C2:N:N:N:N:2)C(F)(F)F)C(F)(F)F)(C2:C:N(:C:C:21)C1:N:N:N:N:1)C1:C:N(:C:C:13)C1:N:N:N:N:1)C1:N:N:N:N:1)C(F)(F)F)C(F)(F)F___N1:N:N:C(:N:1)C1:N:N:N:N:1,1
SR_fof_v1-3c_B_Ch_v2-4c_Cu_1_Ch_ntn_edge_2B_2NO2_Ch_2x2x1,0.43499,0.72326,0.717285,2652.23,1902.4,12.25189,6.079,76045.32573,,,,2160,,324,288,288,C14Cu1H5N2O8,0.034482759,4,4c_Cu_1_Ch,58,O:C(:O)C1:C:C(:C:C(:C:1)C1:C:C(:C(:C:C:1N(:O):O)C1:C:C(:C(:C:C:1N(:O):O)C1:C:C(:C:C(:C:1)C(:O):O)C(:O):O)N(:O):O)N(:O):O)C(:O):O,1
SR_fue_v1-4c_Cd_1_Ch_v2-4c_Cd_1_Ch_4B_fused_8H_Ch_1x1x1,0.03459,0.95572,0.108133,6048.79,654.076,82.6466,45.20055,761731.8977,,,,4392,,576,576,576,C36Cd1H16O8,0.016666667,4,4c_Cd_1_Ch,30,O:C(:O)C1:C:C2:C:C:C3:C:C(:C:C4:C:C:C(:C:1):C:2:C:3:4)C(:O):O,1
SR_fuf_v1-4c_In_1_Ch_v2-4c_In_1_Ch_1B_2CH3_Ch_ntn_edge_1x1x1,0.05738,0.89096,0.314906,3515.1,1106.93,35.12127,22.1516,99979.99343,,,,1392,,384,384,384,C12H8In1O8,0.035714286,4,4c_In_1_Ch,"22,6",CC1:C:C(C(:O):O):C(C):C:C:1C(:O):O___O:C(:O)C(:O):O,1
SR_kagd_v1-8c_Tb_1_Ch_v2-5c_bicyclooctane_Ch_2TrU_Ch_1DoU_Ch_2x2x2,0.54487,0.79036,0.545688,4282.87,2337.11,11.08057,7.92171,90562.53937,,,,1728,,256,256,256,C35H7N3O8Tb1,0.018867925,8,8c_Tb_1_Ch,"192,10",O:C(:O)C#CC#CN1:C:C2:C(:C:1)C13C#CC#CC45C6:C:N(C#CC#CC(:O):O):C:C:6C(C#CC#CC67C8:C:N(C#CC#CC(:O):O):C:C:8C(C#CC#CC89C%10:C:N(C#CC#CC(:O):O):C:C:%10C(C#CC#CC2(C2:C:N(C#CC#CC(:O):O):C:C:21)C1:C:N(C#CC#CC(:O):O):C:C:13)(C1:C:N(C#CC#CC(:O):O):C:C:18)C1:C:N(C#CC#CC(:O):O):C:C:19)(C1:C:N(C#CC#CC(:O):O):C:C:16)C1:C:N(C#CC#CC(:O):O):C:C:17)(C1:C:N(C#CC#CC(:O):O):C:C:14)C1:C:N(C#CC#CC(:O):O):C:C:15___O:C(:O)C=CC(:O):O,1
SR_jph_v1-3c_triazine_Ch_v2-4c_Cu_1_Ch_1DoU_Ch_ntn_edge_1x1x2,0.66257,0.80466,0.528494,4471.42,2363.12,10.42873,7.17534,18100.20374,,,,432,,72,64,64,C12Cu1H4N6O4,0.038461538,4,4c_Cu_1_Ch,104,O:C(:O)C=CC1:N:C2:N:C(:N:1)C1:N:C(C=CC(:O):O):N:C(:N:1)C1:N:C(C=CC(:O):O):N:C(:N:1)C1:N:C(C=CC(:O):O):N:C(:N:1)C1:N:C(C=CC(:O):O):N:C(:N:1)C1:N:C(C=CC(:O):O):N:C(:N:1)C1:N:C(C=CC(:O):O):N:C(:N:1)C1:N:C(C=CC(:O):O):N:C2:N:1,1
SR_fjh_v1-3c_triazine_Ch_v2-4c_porphyrin_Ch_v3-4c_Ni_1_Ch_2B_4H_Ch_ntn_edge_1x1x1,0.30274,0.88952,0.246966,6101.02,1506.74,17.87067,13.96695,65165.53665,,,,984,,72,64,64,C68H37N8Ni2O8,0.016528926,4,4c_Ni_1_Ch,242,O:C(:O)C1:C:C:C(:C:C:1)C1:C:C:C(:C:C:1)C1:N:C(:N:C(:N:1)C1:C2:C:C:C(:N:2):C(C2:N:C(:N:C(:N:2)C2:C:C:C(:C:C:2)C2:C:C:C(:C:C:2)C(:O):O)C2:C:C:C(:C:C:2)C2:C:C:C(:C:C:2)C(:O):O):C2:C:C:C(:[NH]:2):C(C2:N:C(:N:C(:N:2)C2:C:C:C(:C:C:2)C2:C:C:C(:C:C:2)C(:O):O)C2:C:C:C(:C:C:2)C2:C:C:C(:C:C:2)C(:O):O):C2:C:C:C(:N:2):C(C2:N:C(:N:C(:N:2)C2:C:C:C(:C:C:2)C2:C:C:C(:C:C:2)C(:O):O)C2:C:C:C(:C:C:2)C2:C:C:C(:C:C:2)C(:O):O):C2:C:C:C:1:[NH]:2)C1:C:C:C(:C:C:1)C1:C:C:C(:C:C:1)C(:O):O,1
SR_fsn_v1-6c_CdZn_1_Ch_v2-4c_1anC_Ch_1DoU_Ch_2TrU_Ch_2x2x2,0.18501,0.69842,1.04467,2137.64,2233.12,7.725,4.90448,46363.38658,,,,1696,,512,512,384,C24Cd3H12O13Zn1,0.081632653,6,6c_CdZn_1_Ch,48,O:C(:O)C=CC(C#CC#CC(C=CC(:O):O)(C=CC(:O):O)C=CC(:O):O)(C=CC(:O):O)C=CC(:O):O,1
SR_hbr_v1-8c_Zr_1_Ch_v2-8c_Zr_1_Ch_1B_2CN_Ch_1x1x2,0.11552,0.72766,0.777549,1863.2,1448.73,22.70944,16.24088,74468.00864,,,,1980,,864,864,288,C20H12N4O16Zr3,0.057692308,8,8c_Zr_1_Ch,18,N#CC1:C:C(C(:O):O):C(C#N):C:C:1C(:O):O,1
SR_gal_v1-6c_B_Ch_v2-8c_Co_1_Ch_2B_2OH_Ch_1x1x1,0.16025,0.79288,0.504013,2988.24,1506.11,16.77895,14.62558,154111.3692,,,,4248,,480,480,384,C84Co4H48O41,0.023121387,8,8c_Co_1_Ch,"30,168",O:C(:O)C1:C:C(O):C(:C:C:1O)C1:C:C(O):C(:C:C:1O)C(:O):O___O:C(:O)C1:C:C(O):C(:C:C:1O)C1:C:C(O):C(:C:C:1O)C1:C(C2:C:C(O):C(:C:C:2O)C2:C:C(O):C(:C:C:2O)C(:O):O):C(C2:C:C(O):C(:C:C:2O)C2:C:C(O):C(:C:C:2O)C(:O):O):C(C2:C:C(O):C(:C:C:2O)C2:C:C(O):C(:C:C:2O)C(:O):O):C(C2:C:C(O):C(:C:C:2O)C2:C:C(O):C(:C:C:2O)C(:O):O):C:1C1:C:C(O):C(:C:C:1O)C1:C:C(O):C(:C:C:1O)C(:O):O,1
SR_hbr_v1-8c_Zr_1_Ch_v2-8c_Zr_1_Ch_2B_2NH2_Ch_1x1x1,0.09148,0.82416,0.447524,3174.05,1420.47,33.15098,22.98739,78095.57093,,,,1566,,432,432,144,C28H32N8O16Zr3,0.035714286,8,8c_Zr_1_Ch,34,NC1:C:C(:C(N):C:C:1C(:O):O)C1:C:C(N):C(:C:C:1N)C(:O):O,1
SR_hbr_v1-8c_Co_1_Ch_v2-8c_Co_1_Ch_1B_2CH3_Ch_1x1x2,0.1785,0.6533,0.878386,1438.06,1263.17,17.43174,11.58454,39775.30418,,,,1674,,360,360,288,C40Co4H32O17,0.04494382,8,8c_Co_1_Ch,22,CC1:C:C(C(:O):O):C(C):C:C:1C(:O):O,1
SR_hbm_v1-4c_1anC_Ch_v2-4c_Cu_1_Ch_2TrU_Ch_1TrU_Ch_1x1x2,0.4688,0.78236,0.553459,3659.75,2025.52,15.41409,11.38249,13618.20437,,,,288,,72,64,64,C13Cu1O4,0.058823529,4,4c_Cu_1_Ch,136,O:C(:O)C#CC#CC1(C#CC#CC(:O):O)C#CC(C#CC#CC(:O):O)(C#CC#CC(:O):O)C#CC(C#CC#CC(:O):O)(C#CC#CC(:O):O)C#CC(C#CC#CC(:O):O)(C#CC#CC(:O):O)C#CC(C#CC#CC(:O):O)(C#CC#CC(:O):O)C#CC(C#CC#CC(:O):O)(C#CC#CC(:O):O)C#CC(C#CC#CC(:O):O)(C#CC#CC(:O):O)C#CC(C#CC#CC(:O):O)(C#CC#CC(:O):O)C#C1,1
SR_knc_v1-4c_porphyrin_Ch_v2-8c_Co_2_Ch_v3-8c_Co_2_Ch_2B_4F_Ch_1x1x1,0.17939,0.84008,0.419939,4148.18,1741.98,16.41072,12.90427,59934.77562,,,,1124,,80,80,64,C152Cl1Co4F64H28N32,0.014440433,8,8c_Co_2_Ch,138,FC1:C(F):C(:C(F):C(F):C:1C1C:N:N:N:1)C1:C(F):C(F):C(:C(F):C:1F)C1:C2:C:C:C(:N:2):C(C2:C(F):C(F):C(:C(F):C:2F)C2:C(F):C(F):C(C3C:N:N:N:3):C(F):C:2F):C2:C:C:C(:[NH]:2):C(C2:C(F):C(F):C(:C(F):C:2F)C2:C(F):C(F):C(C3C:N:N:N:3):C(F):C:2F):C2:C:C:C(:N:2):C(C2:C(F):C(F):C(:C(F):C:2F)C2:C(F):C(F):C(C3C:N:N:N:3):C(F):C:2F):C2:C:C:C:1:[NH]:2,1
SR_fvm_v1-4c_bicyclooctane_Ch_v2-4c_Cd_1_Ch_ntn_edge_2B_2CF3_Ch_1x1x1,0.03658,0.8657,0.381185,3288.41,1253.49,37.27612,34.35025,153017.2075,,,,1992,,192,192,192,C40Cd1F24H10O8,0.012195122,4,4c_Cd_1_Ch,"38,150,150",O:C(:O)C1:C:C(:C(:C:C:1C(F)(F)F)C1:C:C(:C(:C:C:1C(F)(F)F)C(:O):O)C(F)(F)F)C(F)(F)F___O:C(:O)C1=CC23C=C(C(:O):O)C1C(=C2)C1:C:C(:C(:C:C:1C(F)(F)F)C1:C:C(:C(:C:C:1C(F)(F)F)C1=CC2(C=C(C(:O):O)C1C(=C2)C(:O):O)C1:C:C(:C(:C:C:1C(F)(F)F)C1:C:C(:C(:C:C:1C(F)(F)F)C12C=C(C(:O):O)C(C(=C1)C(:O):O)C(=C2)C1:C:C(:C(:C:C:1C(F)(F)F)C1:C:C(:C3:C:C:1C(F)(F)F)C(F)(F)F)C(F)(F)F)C(F)(F)F)C(F)(F)F)C(F)(F)F)C(F)(F)F___O:C(:O)C1=CC23C=C(C(:O):O)C1C(=C2)C1:C:C(:C(:C:C:1C(F)(F)F)C1:C:C(:C(:C:C:1C(F)(F)F)C1=CC2(C=C(C(:O):O)C1C(=C2)C(:O):O)C1:C:C(:C(:C:C:1C(F)(F)F)C1:C:C(:C(:C:C:1C(F)(F)F)C1=CC2(C=C(C(:O):O)C1C(=C2)C1:C:C(:C(:C:C:1C(F)(F)F)C1:C:C(:C3:C:C:1C(F)(F)F)C(F)(F)F)C(F)(F)F)C(:O):O)C(F)(F)F)C(F)(F)F)C(F)(F)F)C(F)(F)F,1
SR_jjt_v1-6c_Cr_1_Ch_v2-3c_triazine_Ch_v3-3c_pyrrole_Ch_1DoU_Ch_1TrU_Ch_2x2x2,0.72654,0.63302,0.895756,1767.13,1582.92,7.50803,4.73928,31976.88628,,,,1264,,240,240,192,C39Cr3H18N6O13,0.039473684,6,6c_Cr_1_Ch,75,O:C(:O)C=CC1:C:C:C(C=CC(:O):O):N:1C#CC1:N:C(C#CN2:C(C=CC(:O):O):C:C:C:2C=CC(:O):O):N:C(C#CN2:C(C=CC(:O):O):C:C:C:2C=CC(:O):O):N:1,1
SR_fvk_v1-4c_1anC_Ch_v2-4c_Cd_1_Ch_1B_2CH3_Ch_1x1x1,0.07133,0.84596,0.351385,4294.04,1508.86,24.42136,18.1779,45894.32766,,,,984,,128,128,128,C57Cd2H48O16,0.016528926,4,4c_Cd_1_Ch,"220,22",CC1:C:C(:C(C):C:C:1C(:O):O)C1(C2:C:C(C):C(:C:C:2C)C(:O):O)C2:C:C(C):C(:C:C:2C)C(C2:C:C(C):C(:C:C:2C)C(:O):O)(C2:C:C(C):C(:C:C:2C)C(:O):O)C2:C:C(C):C(:C:C:2C)C(C2:C:C(C):C(:C:C:2C)C(:O):O)(C2:C:C(C):C(:C:C:2C)C(:O):O)C2:C:C(C):C(:C:C:2C)C(C2:C:C(C):C(:C:C:2C)C(:O):O)(C2:C:C(C):C(:C:C:2C)C(:O):O)C2:C:C(C):C1:C:C:2C___CC1:C:C(C(:O):O):C(C):C:C:1C(:O):O,1
SR_kms_v1-6c_Ni_1_Ch_v2-3c_pyrrole_Ch_v3-3c_triazine_Ch_ntn_edge_2x2x1,0.31373,0.54274,1.36544,328.188,448.121,5.16386,3.85553,32134.4459,,,,1536,,432,432,288,C13H3N7Ni2O7,0.066666667,6,6c_Ni_1_Ch,"56,56",O:C(:O)C1:N:C2:N:C(:N:1)C1:C:C:C(C3:N:C(:N:C(:N:3)C3:N:C(:N:C(:N:3)C3:C:C:C(C4:N:C(:N:C2:N:4)C(:O):O):N:3C(:O):O)C(:O):O)C(:O):O):N:1C(:O):O___O:C(:O)C1:N:C2:N:C(:N:1)C1:C:C:C(C3:N:C(:N:C(:N:3)C3:N:C(:N:C(:N:3)N3:C(:C:C:C:3C3:N:C(:N:C2:N:3)C(:O):O)C(:O):O)C(:O):O)C(:O):O):N:1C(:O):O,1
SR_fsm_v1-6c_CdZn_1_Ch_v2-4c_bicyclooctane_Ch_v3-4c_bicyclooctane_Ch_1B_4H_Ch_1TrU_Ch_1x2x2,0.14929,0.79162,0.598386,3684.7,2204.87,11.82813,8.08945,53620.54017,,,,1360,,256,256,192,C48Cd3H20O13Zn1,0.049382716,6,6c_CdZn_1_Ch,80,O:C(:O)C#CC1=CC2(C#CC(:O):O)C=C(C#CC3=CC4(C=C(C5:C:C:C(:C:C:5)C(:O):O)C3C(=C4)C3:C:C:C(:C:C:3)C(:O):O)C3:C:C:C(:C:C:3)C(:O):O)C1C(C#CC(:O):O)=C2,1
SR_hcpd_v1-8c_Tb_1_Ch_v2-4c_1anC_Ch_ntn_edge_1B_2SH_Ch_2x2x2,0.24713,0.40138,1.64892,0,0,3.89234,1.87493,33294.36172,,,,1792,,256,256,256,C26H14O8S7Tb1,0.018181818,8,8c_Tb_1_Ch,"6,104",O:C(:O)C(:O):O___O:C(:O)C1:C:C(S):C(:C:C:1S)C(C1:C:C(S):C(:C:C:1S)C(:O):O)(C1:C:C(S):C(:C:C:1S)C(:O):O)C1:C:C(S):C(:C:C:1S)C(C1:C:C(S):C(:C:C:1S)C(:O):O)(C1:C:C(S):C(:C:C:1S)C(:O):O)C1:C:C(S):C(:C:C:1S)C(:O):O,1
SR_ilc_v1-8c_Co_2_Ch_1B_2OH_Ch_2x2x1,0.40309,0.48732,1.31951,0,0,5.13312,2.20196,41219.51229,,,,2424,,480,480,384,C40Cl1Co4H24N24O8,0.041237113,8,8c_Co_2_Ch,24,OC1:C:C(C2C:N:N:N:2):C(O):C:C:1C1C:N:N:N:1,1
SR_etm_v1-3c_Cu_imadazoline_Ch_v2-3c_B_Ch_2B_4F_Ch_1x1x1,0.03465,0.96332,0.107172,5711.23,612.082,41.33901,28.44776,270877.651,,,,1176,,96,96,96,C26Cu2F12H5N4,0.042553191,3,3c_Cu_imadazoline_Ch,"146,34",FC1:C(F):C(:C(F):C(F):C:1C1:C:N:N:C:1)C1:C(F):C(F):C(C2:C:C(:C:C(:C:2)C2:C(F):C(F):C(:C(F):C:2F)C2:C(F):C(F):C(C3:C:C(:C:C(:C:3)C3:C(F):C(F):C(:C(F):C:3F)C3:C(F):C(F):C(C4:C:N:N:C:4):C(F):C:3F)C3:C(F):C(F):C(:C(F):C:3F)C3:C(F):C(F):C(C4:C:N:N:C:4):C(F):C:3F):C(F):C:2F)C2:C(F):C(F):C(:C(F):C:2F)C2:C(F):C(F):C(C3:C:N:N:C:3):C(F):C:2F):C(F):C:1F___FC1:C(F):C(:C(F):C(F):C:1C1:C:N:N:C:1)C1:C(F):C(F):C(C2:C:N:N:C:2):C(F):C:1F,1
SR_lcy_v1-6c_Al_1_Ch_1B_2OH_Ch_2x2x2,0.20167,0.74452,0.630843,3095.08,1952.51,10.54746,8.00958,57723.96727,,,,1856,,480,480,384,Al3C24H12O19,0.054545455,6,6c_Al_1_Ch,18,O:C(:O)C1:C:C(O):C(:C:C:1O)C(:O):O,1
SR_gal_v1-6c_B_Ch_v2-8c_Co_1_Ch_2B_4F_Ch_1x1x1,0.1156,0.77954,0.627535,2298.23,1442.22,16.65259,14.89425,154229.9081,,,,3672,,480,480,384,C84Co4F48O17,0.026845638,8,8c_Co_1_Ch,"144,26",O:C(:O)C1:C(F):C(F):C(:C(F):C:1F)C1:C(F):C(F):C(:C(F):C:1F)C1:C(C2:C(F):C(F):C(:C(F):C:2F)C2:C(F):C(F):C(C(:O):O):C(F):C:2F):C(C2:C(F):C(F):C(:C(F):C:2F)C2:C(F):C(F):C(C(:O):O):C(F):C:2F):C(C2:C(F):C(F):C(:C(F):C:2F)C2:C(F):C(F):C(C(:O):O):C(F):C:2F):C(C2:C(F):C(F):C(:C(F):C:2F)C2:C(F):C(F):C(C(:O):O):C(F):C:2F):C:1C1:C(F):C(F):C(:C(F):C:1F)C1:C(F):C(F):C(C(:O):O):C(F):C:1F___O:C(:O)C1:C(F):C(F):C(:C(F):C:1F)C1:C(F):C(F):C(C(:O):O):C(F):C:1F,1
SR_ftw_v1-4c_porphyrin_Ch_v2-12c_Eu_1_Ch_1B_2NO2_Ch_2x2x2,0.12016,0.6557,0.952251,1480.84,1410.13,13.55122,4.10019,62554.89209,,,,2592,,384,384,192,C72Eu3H29N18O40,0.018867925,12,12c_Eu_1_Ch,102,O:C(:O)C1:C:C(:C(:C:C:1N(:O):O)C1:C2:C:C:C(:N:2):C(C2:C:C(:C(:C:C:2N(:O):O)C(:O):O)N(:O):O):C2:C:C:C(:[NH]:2):C(C2:C:C(:C(:C:C:2N(:O):O)C(:O):O)N(:O):O):C2:C:C:C(:N:2):C(C2:C:C(:C(:C:C:2N(:O):O)C(:O):O)N(:O):O):C2:C:C:C:1:[NH]:2)N(:O):O,1
SR_hbr_v1-8c_Co_2_Ch_v2-8c_Co_2_Ch_1B_4CN_Ch_1x1x2,0.30739,0.73782,0.642347,2249.39,1444.89,22.5506,14.30121,81591.84246,,,,1962,,360,360,288,C56Cl1Co4H8N40,0.038095238,8,8c_Co_2_Ch,26,N#CC1:C(C#N):C(C2C:N:N:N:2):C(C#N):C(C#N):C:1C1C:N:N:N:1,1
SR_kagd_v1-8c_Co_1_Ch_v2-5c_bicyclooctane_Ch_1B_2CF3_Ch_ntn_edge_2x2x2,0.31867,0.49926,1.37916,0,0,5.30474,3.05783,62391.22523,,,,3248,,320,320,256,C100Co4F48H28N6O17,0.020100503,8,8c_Co_1_Ch,"6,384",O:C(:O)C(:O):O___O:C(:O)C1:C:C(:C(:C:C:1C(F)(F)F)N1:C:C2:C(:C:1)C13C4:C:C(:C(:C:C:4C(F)(F)F)C45C6:C:N(:C:C:6C(C6:C:C(:C(:C:C:6C(F)(F)F)C67C8:C:N(:C:C:8C(C8:C:C(:C(:C:C:8C(F)(F)F)C89C%10:C:N(:C:C:%10C(C%10:C:C(:C(:C:C:%10C(F)(F)F)C2(C2:C:N(:C:C:21)C1:C:C(:C(:C:C:1C(F)(F)F)C(:O):O)C(F)(F)F)C1:C:N(:C:C:13)C1:C:C(:C(:C:C:1C(F)(F)F)C(:O):O)C(F)(F)F)C(F)(F)F)(C1:C:N(:C:C:18)C1:C:C(:C(:C:C:1C(F)(F)F)C(:O):O)C(F)(F)F)C1:C:N(:C:C:19)C1:C:C(:C(:C:C:1C(F)(F)F)C(:O):O)C(F)(F)F)C1:C:C(:C(:C:C:1C(F)(F)F)C(:O):O)C(F)(F)F)C(F)(F)F)(C1:C:N(:C:C:16)C1:C:C(:C(:C:C:1C(F)(F)F)C(:O):O)C(F)(F)F)C1:C:N(:C:C:17)C1:C:C(:C(:C:C:1C(F)(F)F)C(:O):O)C(F)(F)F)C1:C:C(:C(:C:C:1C(F)(F)F)C(:O):O)C(F)(F)F)C(F)(F)F)(C1:C:N(:C:C:14)C1:C:C(:C(:C:C:1C(F)(F)F)C(:O):O)C(F)(F)F)C1:C:N(:C:C:15)C1:C:C(:C(:C:C:1C(F)(F)F)C(:O):O)C(F)(F)F)C1:C:C(:C(:C:C:1C(F)(F)F)C(:O):O)C(F)(F)F)C(F)(F)F)C(F)(F)F,1
SR_kez_v1-6c_Al_1_Ch_v2-3c_B_Ch_v3-6c_B_Ch_1TrU_Ch_ntn_edge_2x2x2,1.10989,0.59692,0.918932,0,0,7.98779,2.44773,51181.49135,,,,2048,,480,480,384,Al3C39H9O13,0.049180328,6,6c_Al_1_Ch,120,O:C(:O)C#CC1:C:C(C#CC(:O):O):C:C(:C:1)C1:C(C2:C:C(C#CC(:O):O):C:C(C#CC(:O):O):C:2):C(C2:C:C(C#CC(:O):O):C:C(C#CC(:O):O):C:2):C(C2:C:C(C#CC(:O):O):C:C(C#CC(:O):O):C:2):C(C2:C:C(C#CC(:O):O):C:C(C#CC(:O):O):C:2):C:1C1:C:C(C#CC(:O):O):C:C(C#CC(:O):O):C:1,1
SR_koh_v1-6c_Zn_1_Ch_v2-6c_Zn_1_Ch_v3-3c_triazine_Ch_1TrU_Ch_2TrU_Ch_1DoU_Ch_1x1x1,0.07139,0.89356,0.321214,4667.91,1499.4,26.61749,14.48089,83817.23515,,,,940,,320,320,240,C120H12N18O65Zn20,0.093023256,6,6c_Zn_1_Ch,"27,8",O:C(:O)C#CC#CC1:N:C(C#CC#CC(:O):O):N:C(C=CC(:O):O):N:1___O:C(:O)C#CC(:O):O,1
SR_gar_v1-4c_1anC_Ch_v2-6c_Mg_1_Ch_1B_2Br_Ch_1x1x1,0.12401,0.72974,0.854859,2020.46,1727.21,12.45889,8.68954,65310.02928,,,,1752,,480,480,192,Br8C33H12Mg4O16,0.057971014,6,6c_Mg_1_Ch,53,O:C(:O)C1:C:C(Br):C(:C:C:1Br)C(C1:C:C(Br):C(:C:C:1Br)C(:O):O)(C1:C:C(Br):C(:C:C:1Br)C(:O):O)C1:C:C(Br):C(:C:C:1Br)C(:O):O,1
SR_hcpd_v1-8c_Co_1_Ch_v2-4c_1anC_Ch_ntn_edge_1B_2F_Ch_2x2x2,0.25543,0.54316,1.2595,464.935,585.587,6.1223,3.96954,34803.4071,,,,1616,,320,320,256,C52Co4F14H14O17,0.041237113,8,8c_Co_1_Ch,"6,90",O:C(:O)C(:O):O___O:C(:O)C1:C:C(F):C(:C:C:1F)C(C1:C:C(F):C(:C:C:1F)C(:O):O)(C1:C:C(F):C(:C:C:1F)C(:O):O)C1:C:C(F):C(:C:C:1F)C(C1:C:C(F):C(:C:C:1F)C(:O):O)(C1:C:C(F):C(:C:C:1F)C(:O):O)C1:C:C(F):C(:C:C:1F)C(:O):O,1
SR_hex_v1-8c_Co_2_Ch_1B_2CF3_Ch_1x1x1,0.12808,0.69538,0.845717,2194.39,1855.84,9.42436,7.31163,29726.81357,,,,936,,160,160,128,C48Cl1Co4F24H16N24,0.03539823,8,8c_Co_2_Ch,28,FC(F)(F)C1:C:C(C2C:N:N:N:2):C(:C:C:1C1C:N:N:N:1)C(F)(F)F,1
SR_iab_v1-3c_Cu_imadazoline_Ch_v2-4c_Cu_1_Ch_v3-4c_Cu_1_Ch_2B_4F_Ch_1x1x1,0.07649,0.94524,0.16213,5204.14,843.744,31.5734,24.47512,246550.1233,,,,1512,,204,192,192,C32Cu3F16H4N4O4,0.05,"3,4","3c_Cu_imadazoline_Ch,4c_Cu_1_Ch",30,O:C(:O)C1:C(F):C(F):C(:C(F):C:1F)C1:C(F):C(F):C(C2:C:N:N:C:2):C(F):C:1F,1
SR_fsm_v1-6c_Ni_1_Ch_v2-4c_bicyclooctane_Ch_v3-4c_1anC_Ch_2B_4Br_Ch_ntn_edge_1x1x2,0.10248,0.69292,1.3176,1392.08,1834.2,11.69838,6.69479,53914.10619,,,,1272,,144,144,96,Br48C87H6Ni4O14,0.025806452,6,6c_Ni_1_Ch,151,O:C(:O)C1:C(Br):C(Br):C(:C(Br):C:1Br)C1:C(Br):C(Br):C(C2=CC3(C=C(C4:C(Br):C(Br):C(:C(Br):C:4Br)C4:C(Br):C(Br):C(C(:O):O):C(Br):C:4Br)C2C(=C3)C(C2:C(Br):C(Br):C(:C(Br):C:2Br)C2:C(Br):C(Br):C(C(:O):O):C(Br):C:2Br)(C2:C(Br):C(Br):C(:C(Br):C:2Br)C2:C(Br):C(Br):C(C(:O):O):C(Br):C:2Br)C2:C(Br):C(Br):C(:C(Br):C:2Br)C2:C(Br):C(Br):C(C(:O):O):C(Br):C:2Br)C2:C(Br):C(Br):C(:C(Br):C:2Br)C2:C(Br):C(Br):C(C(:O):O):C(Br):C:2Br):C(Br):C:1Br,1
SR_fof_v1-3c_triazine_Ch_v2-4c_V_1_Ch_2B_2CN_Ch_ntn_edge_2x2x1,0.58379,0.73444,0.673292,3166.97,2132.29,10.70982,6.11827,70482.90843,,,,1800,,324,288,288,C13H2N5O4V1,0.041666667,4,4c_V_1_Ch,48,N#CC1:C:C(:C(C#N):C:C:1C1:N:C(:N:C(:N:1)C(:O):O)C(:O):O)C1:C:C(C#N):C(:C:C:1C#N)C1:N:C(:N:C(:N:1)C(:O):O)C(:O):O,1
SR_hbm_v1-4c_bicyclooctane_Ch_v2-4c_V_1_Ch_1B_4H_Ch_1DoU_Ch_1x1x2,0.24457,0.79838,0.442675,3951.56,1749.26,18.26775,16.49528,25055.20684,,,,688,,72,64,64,C24H14O4V1,0.023809524,4,4c_V_1_Ch,336,O:C(:O)C1:C:C:C(:C:C:1)C1=CC23C=CC45C=C(C=CC6=CC7(C=CC89C=C(C=CC%10=CC%11(C=CC%12%13C=C(C=CC%14=CC%15(C=CC%16%17C=C(C=CC(=C2)C1C(=C3)C1:C:C:C(:C:C:1)C(:O):O)C(C(=C%16)C1:C:C:C(:C:C:1)C(:O):O)C(=C%17)C1:C:C:C(:C:C:1)C(:O):O)C=C(C1:C:C:C(:C:C:1)C(:O):O)C%14C(=C%15)C1:C:C:C(:C:C:1)C(:O):O)C(C(=C%12)C1:C:C:C(:C:C:1)C(:O):O)C(=C%13)C1:C:C:C(:C:C:1)C(:O):O)C=C(C1:C:C:C(:C:C:1)C(:O):O)C%10C(=C%11)C1:C:C:C(:C:C:1)C(:O):O)C(C(=C8)C1:C:C:C(:C:C:1)C(:O):O)C(=C9)C1:C:C:C(:C:C:1)C(:O):O)C=C(C1:C:C:C(:C:C:1)C(:O):O)C6C(=C7)C1:C:C:C(:C:C:1)C(:O):O)C(C(=C4)C1:C:C:C(:C:C:1)C(:O):O)C(=C5)C1:C:C:C(:C:C:1)C(:O):O,1
SR_ftd_v1-4c_Cd_1_Ch_v2-4c_bicyclooctane_Ch_1B_2Br_Ch_ntn_edge_1x1x1,0.11793,0.7244,0.900654,2184.06,1967.09,12.81837,7.28637,43625.22431,,,,1280,,256,256,256,Br3C21Cd1H7O8,0.025641026,4,4c_Cd_1_Ch,"6,240",O:C(:O)C(:O):O___O:C(:O)C12C=C3C4:C:C(Br):C(:C:C:4Br)C4=CC5(C=C6C7:C:C(Br):C(:C:C:7Br)C7=CC8(C=C9C%10:C:C(Br):C(:C:C:%10Br)C%10=CC%11(C=C%12C%13:C:C(Br):C(:C:C:%13Br)C(=C1)C3C(=C2)C1:C:C(Br):C(:C:C:1Br)C1=CC2(C=C3C%13:C:C(Br):C(:C:C:%13Br)C%13=CC%14(C=C(C%15:C:C(Br):C(:C:C:%15Br)C(=C5)C46)C%13C(=C%14)C4:C:C(Br):C(:C:C:4Br)C4=CC5(C=C(C6:C:C(Br):C(:C:C:6Br)C(=C8)C79)C4C(=C5)C4:C:C(Br):C(:C:C:4Br)C4=CC5(C=C(C6:C:C(Br):C(:C:C:6Br)C(=C%11)C%12%10)C4C(=C5)C4:C:C(Br):C(:C:C:4Br)C(=C2)C13)C(:O):O)C(:O):O)C(:O):O)C(:O):O)C(:O):O)C(:O):O)C(:O):O,1
SR_jph_v1-3c_Cu_imadazoline_Ch_v2-4c_Cu_1_Ch_ntn_edge_1x1x1,0.11918,0.93384,0.227571,4730.04,1076.42,28.08674,22.14748,54242.60004,,,,440,,132,128,128,C20Cu7H12N12O4,0.145833333,"3,4","3c_Cu_imadazoline_Ch,4c_Cu_1_Ch","14,10",C1:N:N:C:C:1C1:C:N:N:C:1___O:C(:O)C1:C:N:N:C:1,1
SR_het_v1-4c_In_1_Ch_v2-3c_triazine_Ch_v3-3c_B_Ch_ntn_edge_2B_2NH2_Ch_1x1x1,0.075,0.89442,0.230445,6326.48,1457.9,32.6424,15.95393,116050.8014,,,,1764,,96,96,96,C66H54In1N18O8,0.006849315,4,4c_In_1_Ch,219,NC1:C:C(:C(N):C:C:1C(:O):O)C1:C:C(N):C(:C:C:1N)C1:C:C(:C:C(:C:1)C1:C:C(N):C(:C:C:1N)C1:C:C(N):C(:C:C:1N)C(:O):O)C1:N:C(:N:C(:N:1)C1:C:C(:C:C(:C:1)C1:C:C(N):C(:C:C:1N)C1:C:C(N):C(:C:C:1N)C(:O):O)C1:C:C(N):C(:C:C:1N)C1:C:C(N):C(:C:C:1N)C(:O):O)C1:C:C(:C:C(:C:1)C1:C:C(N):C(:C:C:1N)C1:C:C(N):C(:C:C:1N)C(:O):O)C1:C:C(N):C(:C:C:1N)C1:C:C(N):C(:C:C:1N)C(:O):O,1
SR_fup_v1-4c_bicyclooctane_Ch_v2-4c_Cd_1_Ch_ntn_edge_1B_4CN_Ch_1x1x1,0.10852,0.74188,0.623674,2632.97,1642.12,18.04004,13.74194,39067.72371,,,,1072,,128,128,128,C42Cd1H4N12O8,0.015151515,4,4c_Cd_1_Ch,,None,1
SR_knc_v1-4c_porphyrin_Ch_v2-8c_Co_2_Ch_v3-8c_Co_2_Ch_1B_2furan_Ch_1x1x1,0.15369,0.85852,0.331577,5104.51,1692.54,18.08715,14.02205,53473.3151,,,,996,,80,80,64,C136Cl1Co4H60N32O16,0.016326531,8,8c_Co_2_Ch,122,C1:N:N:N:C1C1:C:C2:C:C3:O:C(:C:C:3:C:C:2:O:1)C1:C2:C:C:C(:N:2):C(C2:C:C3:C:C4:O:C(:C:C:4:C:C:3:O:2)C2C:N:N:N:2):C2:C:C:C(:[NH]:2):C(C2:C:C3:C:C4:O:C(:C:C:4:C:C:3:O:2)C2C:N:N:N:2):C2:C:C:C(:N:2):C(C2:C:C3:C:C4:O:C(:C:C:4:C:C:3:O:2)C2C:N:N:N:2):C2:C:C:C:1:[NH]:2,1
SR_lcy_v1-6c_Cr_1_Ch_1B_2Br_Ch_2x2x2,0.40724,0.71412,1.01864,1901.58,1937.04,9.97762,7.44962,59349.79115,,,,1664,,480,480,384,Br6C24Cr3H6O13,0.06122449,6,6c_Cr_1_Ch,16,O:C(:O)C1:C:C(Br):C(:C:C:1Br)C(:O):O,1
SR_ftw_v1-4c_ethene_Ch_v2-12c_Zr_1_Ch_1B_2SH_Ch_2x2x2,0.15334,0.50836,1.29554,0,0,8.34829,2.26288,30375.50005,,,,1632,,384,384,192,C45H26O16S12Zr3,0.03030303,12,12c_Zr_1_Ch,62,O:C(:O)C1:C:C(S):C(:C:C:1S)C(=C(C1:C:C(S):C(:C:C:1S)C(:O):O)C1:C:C(S):C(:C:C:1S)C(:O):O)C1:C:C(S):C(:C:C:1S)C(:O):O,1
SR_fla_v1-8c_Zr_1_Ch_v2-4c_1anC_Ch_ntn_edge_1B_2indole_Ch_1x1x1,0.23492,0.57124,1.06919,0,0,12.1863,2.46135,19368.36363,,,,1144,,192,192,64,C68H44N12O16Zr3,0.021428571,8,8c_Zr_1_Ch,124,O:C(:O)C12C3:C:C4:C:C5:[NH]:C(:C:C:5:C:C:4:[NH]:3)C3(C(:O):O)C4:C:C5:C:C6:[NH]:C(:C:C:6:C:C:5:[NH]:4)C(C(:O):O)(C4:C:C5:C:C6:[NH]:C1:C:C:6:C:C:5:[NH]:4)C1:C:C4:C:C5:[NH]:C(:C:C:5:C:C:4:[NH]:1)C(C(:O):O)(C1:C:C4:C:C5:[NH]:C2:C:C:5:C:C:4:[NH]:1)C1:C:C2:C:C4:[NH]:C3:C:C:4:C:C:2:[NH]:1,1