name,k,VF,density,ASA_grav,ASA_vol,LPD,PLD,volume,,,,N_atoms,,N_metal_containing_bonds,N_metal_nonmetal_bonds,N_metal_linker_bonds,formula,metal_nonmetal_ratio,metal_node_connectivity,metal_node_name,N_atoms_per_linker,linker_SMILES,N_ccs
SR_cer_v1-3c_pyrrole_Ch_v2-6c_bicyclooctane_Ch_v3-6c_CdZn_1_Ch_2B_2F_Ch_1x1x1,0.06795,0.86774,0.348669,4736.77,1651.56,16.65917,14.27621,60256.66608,,,,916,,64,64,48,C130Cd3F36H43N3O13Zn1,0.017777778,6,6c_CdZn_1_Ch,448,O:C(:O)C1:C:C(F):C(:C:C:1F)C1:C:C(F):C(:C:C:1F)C1:C:C:C(C2:C:C(F):C(:C:C:2F)C2:C:C(F):C(:C:C:2F)C2=C(C3:C:C(F):C(:C:C:3F)C3:C:C(F):C(:C:C:3F)C3:C:C:C(C4:C:C(F):C(:C:C:4F)C4:C:C(F):C(:C:C:4F)C(:O):O):N:3C3:C:C(F):C(:C:C:3F)C3:C:C(F):C(:C:C:3F)C(:O):O)C3C(=C(C4:C:C(F):C(:C:C:4F)C4:C:C(F):C(:C:C:4F)C4:C:C:C(C5:C:C(F):C(:C:C:5F)C5:C:C(F):C(:C:C:5F)C(:O):O):N:4C4:C:C(F):C(:C:C:4F)C4:C:C(F):C(:C:C:4F)C(:O):O)C2C(=C3C2:C:C(F):C(:C:C:2F)C2:C:C(F):C(:C:C:2F)C2:C:C:C(C3:C:C(F):C(:C:C:3F)C3:C:C(F):C(:C:C:3F)C(:O):O):N:2C2:C:C(F):C(:C:C:2F)C2:C:C(F):C(:C:C:2F)C(:O):O)C2:C:C(F):C(:C:C:2F)C2:C:C(F):C(:C:C:2F)C2:C:C:C(C3:C:C(F):C(:C:C:3F)C3:C:C(F):C(:C:C:3F)C(:O):O):N:2C2:C:C(F):C(:C:C:2F)C2:C:C(F):C(:C:C:2F)C(:O):O)C2:C:C(F):C(:C:C:2F)C2:C:C(F):C(:C:C:2F)C2:C:C:C(C3:C:C(F):C(:C:C:3F)C3:C:C(F):C(:C:C:3F)C(:O):O):N:2C2:C:C(F):C(:C:C:2F)C2:C:C(F):C(:C:C:2F)C(:O):O):N:1C1:C:C(F):C(:C:C:1F)C1:C:C(F):C(:C:C:1F)C(:O):O,1
SR_cut_v1-8c_Co_2_Ch_v2-3c_pyrrole_Ch_ntn_edge_1B_2Br_Ch_2x2x2,0.2798,0.75212,0.799743,2010.65,1608,13.14744,11.91841,50137.40737,,,,1288,,160,160,128,Br16C80Cl1Co4H32N28,0.025477707,8,8c_Co_2_Ch,78,BrC1:C:C(:C(Br):C:C:1C1C:N:N:N:1)C1:C:C:C(C2:C:C:C(C3:C:C(Br):C(:C:C:3Br)C3C:N:N:N:3):N:2C2:C:C(Br):C(:C:C:2Br)C2C:N:N:N:2):N:1C1:C:C(Br):C(:C:C:1Br)C1C:N:N:N:1,1
SR_cet_v1-3c_B_Ch_v2-6c_Zn_1_Ch_v3-6c_bicyclooctane_Ch_3B_fused_8H_Ch_1x1x1,0.11681,0.88874,0.225691,6034.42,1361.92,20.65622,16.6248,73948.76416,,,,986,,32,32,24,C310H166O13Zn4,0.008179959,6,6c_Zn_1_Ch,488,O:C(:O)C1:C:C:C2:C(:C:C:C3:C:C(:C:C:C:3:2)C2:C:C3:C:C(:C:2)C2:C:C:C4:C(:C:C:C5:C:C(:C:C:C:5:4)C4=C5C6:C:C:C7:C(:C:C:C8:C:C(:C:C:C:8:7)C7:C:C(:C:C(:C:7)C7:C:C:C8:C(:C:C:C9:C:C(:C:C:C:9:8)C(:O):O):C:7)C7:C:C:C8:C(:C:C:C9:C:C(:C:C:C:9:8)C8=C(C9:C:C:C%10:C(:C:C:C%11:C:C3:C:C:C:%11:%10):C:9)C3C9=C%10C%11:C:C:C%12:C(:C:C:C%13:C:C(:C:C:C:%13:%12)C%12:C:C(:C:C(:C:%12)C%12:C:C:C%13:C(:C:C:C%14:C:C(:C:C:C:%14:%13)C(:O):O):C:%12)C%12:C:C:C%13:C(:C:C:C%14:C:C(:C:C:C:%14:%13)C%13=C(C%14:C:C:C%15:C(:C:C:C%16:C:C(:C:C:C:%16:%15)C%15:C:C(:C:C(:C:%15)C%15:C:C:C%16:C(:C:C:C%17:C:C(:C:C:C:%17:%16)C(:O):O):C:%15)C%15:C:C:C%16:C(:C:C:C%17:C:C9:C:C:C:%17:%16):C:%15):C:%14)C4C4=C(C9:C:C:C%14:C(:C:C:C%15:C:C(:C:C:C:%15:%14)C%14:C:C(:C:C(:C:%14)C%14:C:C:C%15:C(:C:C:C%16:C:C(:C:C:C:%16:%15)C(:O):O):C:%14)C%14:C:C:C%15:C(:C:C:C%16:C:C(:C:C:C:%16:%15)C(=C3C3:C:C:C%15:C(:C:C:C%16:C:C(:C:C:C:%16:%15)C%15:C:C(:C:C(:C:%15)C%15:C:C:C%16:C(:C:C:C%17:C:C(:C:C:C:%17:%16)C(:O):O):C:%15)C%15:C:C:C%16:C(:C:C:C%17:C:C4:C:C:C:%17:%16):C:%15):C:3)C8%10):C:%14):C:9)C5%13):C:%12):C:%11):C:7):C:6):C:2):C:1,1
SR_cdl_v1-4c_Ni_1_Ch_3B_fused_8H_Ch_1x1x1,0.65046,0.874,0.307873,5712.1,1758.6,16.03407,11.49882,55735.76577,,,,928,,144,128,128,C16H8Ni1O4,0.035714286,4,4c_Ni_1_Ch,28,O:C(:O)C1:C:C:C2:C(:C:C:C3:C:C(:C:C:C:3:2)C(:O):O):C:1,1
SR_cep_v1-6c_CdZn_1_Ch_v2-6c_CdZn_1_Ch_v3-3c_triazine_Ch_ntn_edge_2x2x2,0.20068,0.69702,1.27426,1735.89,2211.97,6.43557,5.55858,30282.60288,,,,840,,384,384,288,C12Cd3N6O13Zn1,0.129032258,6,6c_CdZn_1_Ch,15,O:C(:O)C1:N:C(:N:C(:N:1)C(:O):O)C(:O):O,1
SR_ceg_v1-3c_pyrrole_Ch_v2-6c_Ni_1_Ch_v3-4c_Ni_1_Ch_1B_4Br_Ch_ntn_edge_2x2x2,0.11548,0.57988,1.72028,658.962,1133.6,8.90212,4.6685,52318.55821,,,,1840,,360,336,288,Br24C57H7N3Ni5O19,0.045454545,"4,6","4c_Ni_1_Ch,6c_Ni_1_Ch",36,O:C(:O)C1:C(Br):C(Br):C(:C(Br):C:1Br)C1:C:C:C(C(:O):O):N:1C1:C(Br):C(Br):C(C(:O):O):C(Br):C:1Br,1
SR_cdj_v1-3c_B_Ch_v2-6c_Zr_1_Ch_ntn_edge_4B_fused_8H_Ch_1x1x1,0.16644,0.6579,0.935288,1755.22,1641.63,12.37632,7.61785,23870.91504,,,,1032,,384,384,96,C48H43O32Zr6,0.048780488,6,6c_Zr_1_Ch,54,O:C(:O)C1:C:C(:C:C(:C:1)C1:C:C2:C:C:C3:C:C(:C:C4:C:C:C(:C:1):C:2:C:3:4)C1:C:C(:C:C(:C:1)C(:O):O)C(:O):O)C(:O):O,1
SR_cane_v1-6c_Cr_1_Ch_v2-6c_Cr_1_Ch_v3-6c_Cr_1_Ch_1TrU_Ch_1DoU_Ch_ntn_edge_1x1x2,0.41804,0.77198,0.681241,2131.8,1452.27,21.01715,20.00989,67741.17652,,,,1392,,720,720,576,C11Cr3H2O13,0.115384615,6,6c_Cr_1_Ch,"8,6,10",O:C(:O)C#CC(:O):O___O:C(:O)C(:O):O___O:C(:O)C=CC(:O):O,1
SR_cai_v1-5c_bicyclooctane_Ch_v2-6c_CdZn_1_Ch_ntn_edge_1B_4F_Ch_2x2x2,0.39091,0.6616,1.06416,1797.15,1912.45,9.07145,5.48546,77862.34098,,,,3168,,512,512,384,C52Cd3F12H12N6O13Zn1,0.042105263,6,6c_CdZn_1_Ch,"6,352",O:C(:O)C(:O):O___O:C(:O)N1:C:C2:C(:C:1)C13C4:C:N(:C:C:4C24C2:C:N(:C:C:21)C1:C(F):C(F):C(:C(F):C:1F)N1:C:C2:C(:C:1)C15C6:C:N(:C:C:6C2(C2:C:N(:C:C:21)C(:O):O)C1:C(F):C(F):C(:C(F):C:1F)C12C6:C:N(:C:C:6C6(C7:C:N(:C:C:71)C(:O):O)C1:C:N(:C:C:12)C1:C(F):C(F):C(:C(F):C:1F)N1:C:C2:C(:C:1)C1(C7:C:N(:C:C:7C2(C2:C:N(:C:C:21)C(:O):O)C1:C(F):C(F):C4:C(F):C:1F)C(:O):O)C1:C(F):C(F):C(:C(F):C:1F)C12C4:C:N(:C:C:4C4(C7:C:N(:C:C:71)C(:O):O)C1:C:N(:C:C:12)C1:C(F):C(F):C(:C(F):C:1F)N1:C:C2:C(:C:1)C1(C7:C:N(:C:C:7C2(C2:C:N(:C:C:21)C(:O):O)C1:C(F):C(F):C6:C(F):C:1F)C(:O):O)C1:C(F):C(F):C(:C(F):C:1F)C12C6:C:N(:C:C:6C(C6:C:N(:C:C:61)C(:O):O)(C1:C:N(:C:C:12)C1:C(F):C(F):C(:C(F):C:1F)N1:C:C2:C(:C:1)C1(C6:C:N(:C:C:6C2(C2:C:N(:C:C:21)C(:O):O)C1:C(F):C(F):C3:C(F):C:1F)C(:O):O)C1:C(F):C(F):C4:C(F):C:1F)C1:C(F):C(F):C5:C(F):C:1F)C(:O):O)C(:O):O)C(:O):O)C(:O):O)C(:O):O,1
SR_brl_v1-4c_Cu_1_Ch_v2-4c_bicyclooctane_Ch_1B_2indole_Ch_ntn_edge_2x2x2,0.2423,0.80082,0.463317,4303.34,1993.81,14.83787,10.16124,110574.4754,,,,2640,,216,192,192,C30Cu1H16N4O4,0.018518519,4,4c_Cu_1_Ch,324,O:C(:O)C1:C:C2:C:C3:[NH]:C(:C:C:3:C:C:2:[NH]:1)C1=CC2(C=C3C4=CC5(C=C(C6=CC7(C=C(C8=CC9(C=C(C%10=CC%11(C=C(C%12=CC%13(C=C(C(=C2)C31)C%12C(=C%13)C1:C:C2:C:C3:[NH]:C(:C:C:3:C:C:2:[NH]:1)C(:O):O)C1:C:C2:C:C3:[NH]:C(:C:C:3:C:C:2:[NH]:1)C(:O):O)C%10C(=C%11)C1:C:C2:C:C3:[NH]:C(:C:C:3:C:C:2:[NH]:1)C(:O):O)C1:C:C2:C:C3:[NH]:C(:C:C:3:C:C:2:[NH]:1)C(:O):O)C8C(=C9)C1:C:C2:C:C3:[NH]:C(:C:C:3:C:C:2:[NH]:1)C(:O):O)C1:C:C2:C:C3:[NH]:C(:C:C:3:C:C:2:[NH]:1)C(:O):O)C6C(=C7)C1:C:C2:C:C3:[NH]:C(:C:C:3:C:C:2:[NH]:1)C(:O):O)C1:C:C2:C:C3:[NH]:C(:C:C:3:C:C:2:[NH]:1)C(:O):O)C4C(=C5)C1:C:C2:C:C3:[NH]:C(:C:C:3:C:C:2:[NH]:1)C(:O):O)C1:C:C2:C:C3:[NH]:C(:C:C:3:C:C:2:[NH]:1)C(:O):O)C1:C:C2:C:C3:[NH]:C(:C:C:3:C:C:2:[NH]:1)C(:O):O,1
SR_dma_v1-3c_Cu_imadazoline_Ch_v2-3c_Cu_imadazoline_Ch_1B_2NO2_Ch_ntn_edge_1x1x1,0.04707,0.96622,0.108802,5760.62,626.769,42.10812,38.77974,147767.8119,,,,608,,96,96,96,C15Cu3H8N8O4,0.085714286,3,3c_Cu_imadazoline_Ch,"14,28",C1:N:N:C:C:1C1:C:N:N:C:1___O:N(:O)C1:C:C(C2:C:N:N:C:2):C(:C:C:1C1:C:N:N:C:1)N(:O):O,1
SR_ceh_v1-3c_triazine_Ch_v2-6c_B_Ch_v3-4c_Cd_1_Ch_1DoU_Ch_2TrU_Ch_1x1x2,0.1743,0.8301,0.415942,5967.33,2482.07,11.12892,8.33469,19335.44962,,,,306,,48,48,48,C32Cd1H4N6O8,0.02,4,4c_Cd_1_Ch,150,O:C(:O)C#CC#CC1:N:C(C#CC#CC(:O):O):N:C(C=CC2:C(C=CC3:N:C(C#CC#CC(:O):O):N:C(C#CC#CC(:O):O):N:3):C(C=CC3:N:C(C#CC#CC(:O):O):N:C(C#CC#CC(:O):O):N:3):C(C=CC3:N:C(C#CC#CC(:O):O):N:C(C#CC#CC(:O):O):N:3):C(C=CC3:N:C(C#CC#CC(:O):O):N:C(C#CC#CC(:O):O):N:3):C:2C=CC2:N:C(C#CC#CC(:O):O):N:C(C#CC#CC(:O):O):N:2):N:1,1
SR_cai_v1-5c_bicyclooctane_Ch_v2-6c_CdZn_1_Ch_1B_2F_Ch_ntn_edge_1x1x2,0.39395,0.58534,1.25191,1082.35,1355.01,9.58329,6.96299,16653.08045,,,,872,,128,128,96,C58Cd3F8H20N6O13Zn1,0.038095238,6,6c_CdZn_1_Ch,"6,392",O:C(:O)C(:O):O___O:C(:O)C1:C:C(F):C(:C:C:1F)N1:C:C2:C(:C:1)C13C4:C:N(:C:C:4C24C2:C:N(:C:C:21)N1:C:C2:C(:C:1)C15C6:C:N(:C:C:6C2(C2:C:N(:C:C:21)C1:C:C(F):C(:C:C:1F)C(:O):O)C12C6:C:N(:C:C:6C6(C7:C:N(:C:C:71)C1:C:C(F):C(:C:C:1F)C(:O):O)C1:C:N(:C:C:12)N1:C:C2:C(:C:1)C1(C7:C:N(:C:C:7C24C2:C:N(:C:C:21)C1:C:C(F):C(:C:C:1F)C(:O):O)C1:C:C(F):C(:C:C:1F)C(:O):O)C12C4:C:N(:C:C:4C4(C7:C:N(:C:C:71)C1:C:C(F):C(:C:C:1F)C(:O):O)C1:C:N(:C:C:12)N1:C:C2:C(:C:1)C1(C7:C:N(:C:C:7C26C2:C:N(:C:C:21)C1:C:C(F):C(:C:C:1F)C(:O):O)C1:C:C(F):C(:C:C:1F)C(:O):O)C12C6:C:N(:C:C:6C5(C5:C:N(:C:C:51)C1:C:C(F):C(:C:C:1F)C(:O):O)C1:C:N(:C:C:12)N1:C:C2:C(:C:1)C41C4:C:N(:C:C:4C23C2:C:N(:C:C:21)C1:C:C(F):C(:C:C:1F)C(:O):O)C1:C:C(F):C(:C:C:1F)C(:O):O)C1:C:C(F):C(:C:C:1F)C(:O):O)C1:C:C(F):C(:C:C:1F)C(:O):O)C1:C:C(F):C(:C:C:1F)C(:O):O)C1:C:C(F):C(:C:C:1F)C(:O):O)C1:C:C(F):C(:C:C:1F)C(:O):O,1
SR_ceg_v1-3c_pyrrole_Ch_v2-6c_Zn_1_Ch_v3-4c_porphyrin_Ch_ntn_edge_1B_2thiophene_Ch_2x2x2,0.182,0.71572,0.680377,2857.57,1944.22,10.54265,7.58146,71293.56281,,,,2104,,128,128,96,C150H66N18O13S12Zn4,0.015444015,6,6c_Zn_1_Ch,,None,1
SR_cag_v1-4c_In_1_Ch_2B_4Br_Ch_1x1x1,0.02807,0.87818,0.529369,2520.35,1334.2,21.85338,15.74899,93231.69144,,,,848,,128,128,128,Br16C28In1O8,0.019230769,4,4c_In_1_Ch,26,O:C(:O)C1:C(Br):C(Br):C(:C(Br):C:1Br)C1:C(Br):C(Br):C(C(:O):O):C(Br):C:1Br,1
SR_buh_v1-4c_bicyclooctane_Ch_v2-12c_Zr_1_Ch_v3-12c_Zr_1_Ch_2B_2OH_Ch_1x1x1,0.17503,0.77696,0.536612,3815.08,2047.22,16.32413,7.77933,101564.399,,,,3024,,384,384,192,C90H56O40Zr3,0.016129032,12,12c_Zr_1_Ch,120,O:C(:O)C1:C:C(O):C(:C:C:1O)C1:C:C(O):C(:C:C:1O)C1=CC2(C=C(C3:C:C(O):C(:C:C:3O)C3:C:C(O):C(:C:C:3O)C(:O):O)C1C(=C2)C1:C:C(O):C(:C:C:1O)C1:C:C(O):C(:C:C:1O)C(:O):O)C1:C:C(O):C(:C:C:1O)C1:C:C(O):C(:C:C:1O)C(:O):O,1
SR_ceu_v1-4c_B_Ch_v2-6c_Ni_1_Ch_v3-4c_Ni_1_Ch_2B_fused_Ch_ntn_edge_2x2x1,0.43745,0.50026,1.27923,0,0,8.42081,2.27914,49352.50242,,,,2672,,504,480,384,C90H44Ni7O26,0.04375,"4,6","4c_Ni_1_Ch,6c_Ni_1_Ch",52,O:C(:O)C1:C:C:C2:C:C(:C:C:C:2:C:1)C1:C:C(C(:O):O):C(:C:C:1C1:C:C:C2:C:C(:C:C:C:2:C:1)C(:O):O)C(:O):O,1
SR_cdme_v1-4c_porphyrin_Ch_v2-4c_Cu_1_Ch_v3-4c_1anC_Ch_v4-4c_porphyrin_Ch_1B_2SH_Ch_2x2x1,0.19515,0.77954,0.498388,4004.43,1995.76,12.03749,8.51465,85915.0715,,,,2360,,72,64,64,C157Cu2H88N16O8S24,0.006825939,4,4c_Cu_1_Ch,,None,1
SR_btv_v1-5c_bicyclooctane_Ch_v2-6c_CdZn_1_Ch_ntn_edge_1B_4CN_Ch_2x2x2,0.55426,0.64712,0.993282,1515.78,1505.6,7.84915,5.4523,43964.2483,,,,1776,,256,256,192,C64Cd3H12N18O13Zn1,0.037383178,6,6c_CdZn_1_Ch,"400,6",N#CC1:C(C#N):C2:C(C#N):C(C#N):C:1N1:C:C3:C(:C:1)C14C5:C:N(:C:C:5C3(C3:C:N(:C:C:31)C(:O):O)C1:C(C#N):C(C#N):C(:C(C#N):C:1C#N)C13C5:C:N(:C:C:5C5(C6:C:N(:C:C:61)C(:O):O)C1:C:N(:C:C:13)C1:C(C#N):C(C#N):C(:C(C#N):C:1C#N)N1:C:C3:C(:C:1)C16C7:C:N(:C:C:7C3(C3:C:N(:C:C:31)C(:O):O)C1:C(C#N):C(C#N):C(:C(C#N):C:1C#N)C13C7:C:N(:C:C:7C(C7:C:N(:C:C:71)C(:O):O)(C1:C:N2:C:C:13)C1:C(C#N):C(C#N):C(:C(C#N):C:1C#N)C12C3:C:N(:C:C:3C3(C7:C:N(:C:C:71)C(:O):O)C1:C:N(:C:C:12)C1:C(C#N):C(C#N):C(:C(C#N):C:1C#N)N1:C:C2:C(:C:1)C1(C7:C:N(:C:C:7C2(C2:C:N(:C:C:21)C(:O):O)C1:C(C#N):C(C#N):C4:C(C#N):C:1C#N)C(:O):O)C1:C(C#N):C(C#N):C(:C(C#N):C:1C#N)C12C4:C:N(:C:C:4C(C4:C:N(:C:C:41)C(:O):O)(C1:C:N(:C:C:12)C1:C(C#N):C(C#N):C(:C(C#N):C:1C#N)N1:C:C2:C(:C:1)C1(C4:C:N(:C:C:4C2(C2:C:N(:C:C:21)C(:O):O)C1:C(C#N):C(C#N):C6:C(C#N):C:1C#N)C(:O):O)C1:C(C#N):C(C#N):C3:C(C#N):C:1C#N)C1:C(C#N):C(C#N):C5:C(C#N):C:1C#N)C(:O):O)C(:O):O)C(:O):O)C(:O):O)C(:O):O)C(:O):O___O:C(:O)C(:O):O,1
SR_cut_v1-8c_Zr_1_Ch_v2-3c_triazine_Ch_1DoU_Ch_2x2x2,0.20487,0.82176,0.502461,3135.64,1575.54,18.17026,16.26228,46194.40082,,,,1008,,384,384,128,C20H18N6O16Zr3,0.05,8,8c_Zr_1_Ch,44,O:C(:O)C=CC1:N:C(C=CC(:O):O):N:C(C=CC2:N:C(C=CC(:O):O):N:C(C=CC(:O):O):N:2):N:1,1
SR_cdme_v1-4c_ethene_Ch_v2-4c_Ni_1_Ch_v3-4c_1anC_Ch_v4-4c_Ni_1_Ch_1B_2F_Ch_ntn_edge_3x3x1,1.29752,0.41992,1.78584,0,0,3.82262,2.35436,23255.62256,,,,1566,,486,432,432,C41F8H8Ni6O24,0.074074074,4,4c_Ni_1_Ch,,None,1
SR_cane_v1-6c_Cr_1_Ch_v2-6c_Cr_1_Ch_v3-6c_Cr_1_Ch_1TrU_Ch_1x1x2,0.55169,0.81362,0.552486,2604.38,1438.88,24.25743,23.01079,85339.51238,,,,1344,,720,720,576,C12Cr3O13,0.12,6,6c_Cr_1_Ch,8,O:C(:O)C#CC(:O):O,1
SR_cet_v1-3c_B_Ch_v2-6c_Zr_1_Ch_v3-6c_bicyclooctane_Ch_1B_2indole_Ch_1x1x1,0.10593,0.8944,0.245864,5392.41,1325.8,23.1341,18.82673,72462.47558,,,,928,,96,96,24,C119H76N18O16Zr3,0.013100437,6,6c_Zr_1_Ch,416,O:C(:O)C1:C:C2:C:C3:[NH]:C(:C:C:3:C:C:2:[NH]:1)C1:C:C2:C:C(:C:1)C1:C:C3:C:C4:[NH]:C(:C:C:4:C:C:3:[NH]:1)C1=C3C4:C:C5:C:C6:[NH]:C(:C:C:6:C:C:5:[NH]:4)C4:C:C(:C:C(:C:4)C4:C:C5:C:C6:[NH]:C(:C:C:6:C:C:5:[NH]:4)C(:O):O)C4:C:C5:C:C6:[NH]:C(:C:C:6:C:C:5:[NH]:4)C4=C(C5:C:C6:C:C7:[NH]:C2:C:C:7:C:C:6:[NH]:5)C2C5=C6C7:C:C8:C:C9:[NH]:C(:C:C:9:C:C:8:[NH]:7)C7:C:C(:C:C(:C:7)C7:C:C8:C:C9:[NH]:C(:C:C:9:C:C:8:[NH]:7)C(:O):O)C7:C:C8:C:C9:[NH]:C(:C:C:9:C:C:8:[NH]:7)C7=C(C8:C:C9:C:C%10:[NH]:C(:C:C:%10:C:C:9:[NH]:8)C8:C:C(:C:C(:C:8)C8:C:C9:C:C%10:[NH]:C(:C:C:%10:C:C:9:[NH]:8)C(:O):O)C8:C:C9:C:C%10:[NH]:C5:C:C:%10:C:C:9:[NH]:8)C1C1=C(C5:C:C8:C:C9:[NH]:C(:C:C:9:C:C:8:[NH]:5)C5:C:C(:C:C(:C:5)C5:C:C8:C:C9:[NH]:C(:C:C:9:C:C:8:[NH]:5)C(:O):O)C5:C:C8:C:C9:[NH]:C(:C:C:9:C:C:8:[NH]:5)C(=C2C2:C:C5:C:C8:[NH]:C(:C:C:8:C:C:5:[NH]:2)C2:C:C(:C:C(:C:2)C2:C:C5:C:C8:[NH]:C(:C:C:8:C:C:5:[NH]:2)C(:O):O)C2:C:C5:C:C8:[NH]:C1:C:C:8:C:C:5:[NH]:2)C46)C37,1
SR_cai_v1-5c_bicyclooctane_Ch_v2-6c_Zn_1_Ch_2B_1DoU_Ch_ntn_edge_1x1x3,0.42141,0.71832,0.662583,2083.18,1380.28,16.06848,14.17654,50834.4452,,,,1980,,192,192,144,C90H52N6O13Zn4,0.02484472,6,6c_Zn_1_Ch,,None,1
SR_cer_v1-3c_pyrrole_Ch_v2-6c_bicyclooctane_Ch_v3-6c_Ni_1_Ch_1B_4CN_Ch_2x2x1,0.18672,0.59562,0.949672,1479.03,1404.59,7.85414,5.02233,69066.34357,,,,2848,,288,288,192,C112H9N39Ni4O14,0.022988506,6,6c_Ni_1_Ch,340,N#CC1:C(C#N):C(:C(C#N):C(C#N):C:1C1=C(C2:C(C#N):C(C#N):C(:C(C#N):C:2C#N)C2:C:C:C(C3:C(C#N):C(C#N):C(C(:O):O):C(C#N):C:3C#N):N:2C2:C(C#N):C(C#N):C(C(:O):O):C(C#N):C:2C#N)C2C(=C(C3:C(C#N):C(C#N):C(:C(C#N):C:3C#N)C3:C:C:C(C4:C(C#N):C(C#N):C(C(:O):O):C(C#N):C:4C#N):N:3C3:C(C#N):C(C#N):C(C(:O):O):C(C#N):C:3C#N)C1C(=C2C1:C(C#N):C(C#N):C(:C(C#N):C:1C#N)C1:C:C:C(C2:C(C#N):C(C#N):C(C(:O):O):C(C#N):C:2C#N):N:1C1:C(C#N):C(C#N):C(C(:O):O):C(C#N):C:1C#N)C1:C(C#N):C(C#N):C(:C(C#N):C:1C#N)C1:C:C:C(C2:C(C#N):C(C#N):C(C(:O):O):C(C#N):C:2C#N):N:1C1:C(C#N):C(C#N):C(C(:O):O):C(C#N):C:1C#N)C1:C(C#N):C(C#N):C(:C(C#N):C:1C#N)C1:C:C:C(C2:C(C#N):C(C#N):C(C(:O):O):C(C#N):C:2C#N):N:1C1:C(C#N):C(C#N):C(C(:O):O):C(C#N):C:1C#N)C1:C:C:C(C2:C(C#N):C(C#N):C(C(:O):O):C(C#N):C:2C#N):N:1C1:C(C#N):C(C#N):C(C(:O):O):C(C#N):C:1C#N,1
SR_cdle_v1-4c_V_1_Ch_v2-4c_1anC_Ch_v3-4c_porphyrin_Ch_1TrU_Ch_2x2x1,0.38883,0.77036,0.512998,4145.65,2126.71,9.51206,7.72742,28349.44027,,,,792,,72,64,64,C61H20N8O8V2,0.020618557,4,4c_V_1_Ch,388,O:C(:O)C#CC1:C2:C:C:C(:N:2):C(C#CC(:O):O):C2:C:C:C(:[NH]:2):C2C#CC34C#CC5:C6:C:C:C(:N:6):C(C#CC6(C#CC(:C7:C:C:C:2:N:7):C2:C:C:C:1:[NH]:2)C#CC1:C2:C:C:C(:N:2):C(C#CC2(C#CC7:C8:C:C:C(:N:8):C(C#C6):C6:C:C:C(:[NH]:6):C(C#CC(:O):O):C6:C:C:C(:N:6):C(C#CC(:O):O):C6:C:C:C:7:[NH]:6)C#CC6:C7:C:C:C(:N:7):C(C#CC(C#CC7:C8:C:C:C(:N:8):C(C#C3):C3:C:C:C(:[NH]:3):C(C#CC(:O):O):C3:C:C:C(:N:3):C(C#CC(:O):O):C3:C:C:C:7:[NH]:3)(C#CC3:C7:C:C:C(:N:7):C(C#C4):C4:C:C:C(:[NH]:4):C(C#CC(:O):O):C4:C:C:C(:N:4):C(C#CC(:O):O):C4:C:C:C:3:[NH]:4)C#CC3:C4:C:C:C(:N:4):C(C#C2):C2:C:C:C(:[NH]:2):C(C#CC(:O):O):C2:C:C:C(:N:2):C(C#CC(:O):O):C2:C:C:C:3:[NH]:2):C2:C:C:C(:[NH]:2):C(C#CC(:O):O):C2:C:C:C(:N:2):C(C#CC(:O):O):C2:C:C:C:6:[NH]:2):C2:C:C:C(:[NH]:2):C(C#CC(:O):O):C2:C:C:C(:N:2):C(C#CC(:O):O):C2:C:C:C:1:[NH]:2):C1:C:C:C(:[NH]:1):C(C#CC(:O):O):C1:C:C:C(:N:1):C(C#CC(:O):O):C1:C:C:C:5:[NH]:1,1
SR_buh_v1-4c_bicyclooctane_Ch_v2-12c_Zr_1_Ch_v3-12c_Zr_1_Ch_2B_2F_Ch_1x1x1,0.13584,0.7859,0.549144,3750.9,2059.78,16.38381,8.26301,101561.8273,,,,2640,,384,384,192,C90F24H32O16Zr3,0.018518519,12,12c_Zr_1_Ch,104,O:C(:O)C1:C:C(F):C(:C:C:1F)C1:C:C(F):C(:C:C:1F)C1=CC2(C=C(C3:C:C(F):C(:C:C:3F)C3:C:C(F):C(:C:C:3F)C(:O):O)C1C(=C2)C1:C:C(F):C(:C:C:1F)C1:C:C(F):C(:C:C:1F)C(:O):O)C1:C:C(F):C(:C:C:1F)C1:C:C(F):C(:C:C:1F)C(:O):O,1
SR_cdme_v1-4c_V_1_Ch_v2-4c_B_Ch_v3-4c_bicyclooctane_Ch_v4-4c_porphyrin_Ch_3B_fused_8H_Ch_2x2x1,0.13435,0.90778,0.202461,6205.67,1256.4,21.02581,16.96439,226852.2965,,,,3040,,144,128,128,C115H61N4O8V2,0.010638298,4,4c_V_1_Ch,,None,1
SR_bto_v1-3c_Cu_imadazoline_Ch_ntn_edge_2x2x1,0.22977,0.9311,0.234108,5178.91,1212.42,17.33333,14.62396,76415.59874,,,,576,,144,144,144,C3Cu1H2N2,0.142857143,3,3c_Cu_imadazoline_Ch,14,C1:N:N:C:C:1C1:C:N:N:C:1,1
SR_cdj_v1-3c_B_Ch_v2-6c_Zr_1_Ch_1B_2CN_Ch_1x1x1,0.08687,0.81784,0.45604,3888.98,1773.53,16.21285,10.71162,67731.54726,,,,1464,,384,384,96,C84H46N15O32Zr6,0.033898305,6,6c_Zr_1_Ch,90,N#CC1:C:C(C2:C:C(:C:C(:C:2)C2:C:C(C#N):C(:C:C:2C#N)C2:C:C(:C:C(:C:2)C2:C:C(C#N):C(:C:C:2C#N)C(:O):O)C2:C:C(C#N):C(:C:C:2C#N)C(:O):O)C2:C:C(C#N):C(:C:C:2C#N)C(:O):O):C(C#N):C:C:1C(:O):O,1
SR_cen_v1-12c_Mn_1_Ch_v2-4c_1anC_Ch_1TrU_Ch_ntn_edge_2x2x2,2.08735,0.37876,1.83363,0,0,4.06058,2.35362,11312.8711,,,,600,,336,336,144,C40Mn8O27,0.119402985,12,12c_Mn_1_Ch,"32,32",O:C(:O)C#CC(C#CC(:O):O)(C#CC(:O):O)C(C#CC(:O):O)(C#CC(:O):O)C#CC(:O):O___OC(:O)C#CC(C#CC(O):O)(C#CC(O):O)C(C#CC(O):O)(C#CC(O):O)C#CC(O):O,1
SR_cboe_v1-6c_Cr_1_Ch_v2-6c_Cr_1_Ch_1B_2NH2_Ch_1x1x1,0.17259,0.72354,0.719535,2439.88,1755.58,12.33324,7.37534,83571.97328,,,,3072,,720,720,576,C24Cr3H18N6O13,0.049180328,6,6c_Cr_1_Ch,20,NC1:C:C(C(:O):O):C(N):C:C:1C(:O):O,1
SR_btv_v1-5c_bicyclooctane_Ch_v2-6c_Zn_1_Ch_2TrU_Ch_1TrU_Ch_2x2x1,0.65473,0.8648,0.335779,5276.49,1771.73,21.03709,18.12582,52791.98191,,,,792,,128,128,96,C64H12N6O13Zn4,0.042105263,6,6c_Zn_1_Ch,"344,8",O:C(:O)C#CC#CN1:C:C2:C(:C:1)C13C#CC#CC45C6:C:N(C#CC#CC(:O):O):C:C:6C6(C#CC#CC78C9:C:N(C#CC#CC(:O):O):C:C:9C9(C#CC#CC%10%11C%12:C:N(C#CC#CC(:O):O):C:C:%12C%12(C#CC#CC2(C2:C:N(C#CC#CC(:O):O):C:C:21)C1:C:N(C#CC#CN2:C:C%13:C(:C:2)C2%14C#CC#CC%15%16C%17:C:N(C#CC#CC(:O):O):C:C:%17C(C#CC#CC%17%18C%19:C:N(C#CC#CC(:O):O):C:C:%19C(C#CC#CC%19%20C%21:C:N(C#CC#CC(:O):O):C:C:%21C(C#CC#CC%13(C%13:C:N(C#CC#CC(:O):O):C:C:%132)C2:C:N(C#CC#CC(:O):O):C:C:2%14)(C2:C:N(C#CC#CC(:O):O):C:C:2%19)C2:C:N(C#CC#CN%13:C:C%12:C%10:C:%13):C:C:2%20)(C2:C:N(C#CC#CC(:O):O):C:C:2%17)C2:C:N(C#CC#CN%10:C:C9:C7:C:%10):C:C:2%18)(C2:C:N(C#CC#CC(:O):O):C:C:2%15)C2:C:N(C#CC#CN7:C:C4:C6:C:7):C:C:2%16):C:C:13)C1:C:N(C#CC#CC(:O):O):C:C:1%11)C1:C:N(C#CC#CC(:O):O):C:C:18)C1:C:N(C#CC#CC(:O):O):C:C:15___O:C(:O)C#CC(:O):O,1
SR_buh_v1-4c_bicyclooctane_Ch_v2-12c_Zr_1_Ch_v3-12c_Zr_1_Ch_1TrU_Ch_1DoU_Ch_1x1x1,0.27102,0.62744,1.02424,1542.59,1579.99,9.20618,4.3111,23554.22975,,,,1056,,384,384,192,C30H17O16Zr3,0.047619048,12,12c_Zr_1_Ch,38,O:C(:O)C#CC1=CC2(C=CC(:O):O)C=C(C=CC(:O):O)C1C(C=CC(:O):O)=C2,1
SR_cdn_v1-4c_Cu_1_Ch_v2-4c_Cu_1_Ch_ntn_edge_1B_4H_Ch_1DoU_Ch_2x2x1,0.8067,0.71162,0.901838,2120.32,1912.18,10.91192,7.37139,89500.05834,,,,3136,,1152,1024,1024,C20Cu4H9O16,0.088888889,4,4c_Cu_1_Ch,"6,16,10",O:C(:O)C(:O):O___O:C(:O)C1:C:C:C(:C:C:1)C(:O):O___O:C(:O)C=CC(:O):O,1
SR_ceg_v1-3c_B_Ch_v2-6c_Ni_1_Ch_v3-4c_porphyrin_Ch_1B_4Br_Ch_ntn_edge_2x2x2,0.1235,0.69312,1.10502,1609.74,1778.8,10.19259,5.78572,89903.87798,,,,2416,,144,144,96,Br24C87H25N6Ni2O7,0.013422819,6,6c_Ni_1_Ch,,None,1
SR_cdp_v1-4c_1anC_Ch_v2-4c_In_1_Ch_3B_fused_8H_Ch_1x1x1,0.08835,0.90646,0.223142,5854.79,1306.45,22.59221,17.20074,49151.36887,,,,636,,64,64,64,C93H48In2O16,0.012738854,4,4c_In_1_Ch,"28,101",O:C(:O)C1:C:C:C2:C(:C:C:C3:C:C(:C:C:C:3:2)C(:O):O):C:1___O:C(:O)C1:C:C:C2:C(:C:C:C3:C:C(:C:C:C:3:2)C(C2:C:C:C3:C(:C:C:C4:C:C(:C:C:C:4:3)C(:O):O):C:2)(C2:C:C:C3:C(:C:C:C4:C:C(:C:C:C:4:3)C(:O):O):C:2)C2:C:C:C3:C(:C:C:C4:C:C(:C:C:C:4:3)C(:O):O):C:2):C:1,1
SR_cut_v1-8c_Co_2_Ch_v2-3c_triazine_Ch_2B_2OH_Ch_ntn_edge_2x2x3,0.2452,0.83684,0.417622,3889.18,1624.21,18.07007,17.32951,74063.65223,,,,1500,,240,240,192,C52Cl1Co4H24N36O8,0.033057851,8,8c_Co_2_Ch,60,OC1:C:C(:C(O):C:C:1C1:N:C(:N:C(:N:1)C1C:N:N:N:1)C1C:N:N:N:1)C1:C:C(O):C(:C:C:1O)C1:N:C(:N:C(:N:1)C1C:N:N:N:1)C1C:N:N:N:1,1
SR_cdl_v1-4c_Ni_1_Ch_1B_2thiophene_Ch_1x1x1,0.42837,0.87378,0.340717,5214.48,1776.66,15.80642,11.25449,52243.84056,,,,736,,144,128,128,C12H4Ni1O4S2,0.045454545,4,4c_Ni_1_Ch,22,O:C(:O)C1:C:C2:C:C3:S:C(:C:C:3:C:C:2:S:1)C(:O):O,1
SR_cdj_v1-3c_triazine_Ch_v2-6c_Zr_1_Ch_2B_1DoU_Ch_1x1x1,0.05515,0.94234,0.13539,5934.8,803.51,34.86191,26.40117,267328.8977,,,,2112,,384,384,96,C120H97N9O32Zr6,0.023255814,6,6c_Zr_1_Ch,144,O:C(:O)C1:C:C:C(C=CC2:C:C:C(:C:C:2)C2:N:C(:N:C(:N:2)C2:C:C:C(C=CC3:C:C:C(:C:C:3)C3:N:C(:N:C(:N:3)C3:C:C:C(C=CC4:C:C:C(:C:C:4)C(:O):O):C:C:3)C3:C:C:C(C=CC4:C:C:C(:C:C:4)C(:O):O):C:C:3):C:C:2)C2:C:C:C(C=CC3:C:C:C(:C:C:3)C(:O):O):C:C:2):C:C:1,1