name,k,VF,density,ASA_grav,ASA_vol,LPD,PLD,volume,,,,N_atoms,,N_metal_containing_bonds,N_metal_nonmetal_bonds,N_metal_linker_bonds,formula,metal_nonmetal_ratio,metal_node_connectivity,metal_node_name,N_atoms_per_linker,linker_SMILES,N_ccs
SR_brl_v1-4c_V_1_Ch_v2-4c_bicyclooctane_Ch_ntn_edge_1DoU_Ch_2x2x3,0.30723,0.65636,0.822527,1893.56,1557.51,8.49564,4.77919,49294.11298,,,,1944,,324,288,288,C14H8O4V1,0.038461538,4,4c_V_1_Ch,156,O:C(:O)C=CC1=CC2(C=CC(:O):O)C=C3C4=CC5(C=CC(:O):O)C=C(C=CC(:O):O)C4C(=C5)C4=CC5(C=CC(:O):O)C=C(C=CC(:O):O)C4C(=C5)C4=CC5(C=CC(:O):O)C=C(C=CC(:O):O)C4C(=C5)C4=CC5(C=CC(:O):O)C=C(C=CC(:O):O)C4C(=C5)C4=CC5(C=CC(:O):O)C=C(C=CC(:O):O)C4C(=C5)C(=C2)C13,1
SR_crsd_v1-8c_Mn_1_Ch_v2-4c_1anC_Ch_1B_4F_Ch_1x1x1,0.20744,0.53718,1.32603,441.707,585.719,6.01935,3.64771,17030.47036,,,,848,,160,160,128,C45Cl1F24Mn4N32,0.039215686,8,8c_Mn_1_Ch,"61,20",FC1:C(F):C(:C(F):C(F):C:1C1:N:N:N:N:1)C(C1:C(F):C(F):C(C2:N:N:N:N:2):C(F):C:1F)(C1:C(F):C(F):C(C2:N:N:N:N:2):C(F):C:1F)C1:C(F):C(F):C(C2:N:N:N:N:2):C(F):C:1F___FC1:C(F):C(C2:N:N:N:N:2):C(F):C(F):C:1C1:N:N:N:N:1,1
SR_ceh_v1-3c_pyrrole_Ch_v2-6c_Mg_1_Ch_v3-4c_bicyclooctane_Ch_2B_2Br_Ch_1x1x2,0.14102,0.75942,0.809495,2785.18,2254.59,10.55332,7.47974,46594.66467,,,,972,,60,60,24,Br12C46H17Mg1N1O4,0.0125,6,6c_Mg_1_Ch,,None,1
SR_cut_v1-8c_Co_2_Ch_v2-3c_pyrrole_Ch_1TrU_Ch_ntn_edge_2x2x2,0.51736,0.7876,0.530225,3443.66,1825.91,14.90848,13.24555,32688.08672,,,,776,,160,160,128,C48Cl1Co4H16N28,0.043010753,8,8c_Co_2_Ch,46,C(#CC1:C:C:C(C2:C:C:C(C#CC3C:N:N:N:3):N:2C#CC2C:N:N:N:2):N:1C#CC1C:N:N:N:1)C1C:N:N:N:1,1
SR_crsd_v1-8c_Co_1_Ch_v2-4c_1anC_Ch_1TrU_Ch_ntn_edge_2x2x2,0.43647,0.48142,1.67946,0,0,5.01837,3.01027,45095.73405,,,,2432,,1280,1280,1024,C17Co4O17,0.117647059,8,8c_Co_1_Ch,"21,6",O:C(:O)C#CC(C#CC(:O):O)(C#CC(:O):O)C#CC(:O):O___O:C(:O)C(:O):O,1
SR_dma_v1-3c_Cu_imadazoline_Ch_v2-3c_B_Ch_ntn_edge_1DoU_Ch_1x1x2,0.21004,0.9159,0.253064,5437.04,1375.92,20.44261,16.08353,57335.19281,,,,592,,96,96,96,C17Cu3H11N6,0.088235294,3,3c_Cu_imadazoline_Ch,"14,160",C1:N:N:C:C:1C1:C:N:N:C:1___C1=CC2:C:C(C=CC3:C:C(C=CC4:C:C(C=CC5:C:C(C=CC6:C:C(C=CC7:C:C(C=CC8:C:C(C=CC9:C:C1:C:C(:C:9)C1:C:N:N:C:1):C:C(:C:8)C1:C:N:N:C:1):C:C(:C:7)C1:C:N:N:C:1):C:C(:C:6)C1:C:N:N:C:1):C:C(:C:5)C1:C:N:N:C:1):C:C(:C:4)C1:C:N:N:C:1):C:C(:C:3)C1:C:N:N:C:1):C:C(:C:2)C1:C:N:N:C:1,1
SR_csq_v1-4c_ethene_Ch_v2-8c_Zr_1_Ch_1B_2CH3_Ch_1x1x2,0.15644,0.70256,0.721977,1547.75,1117.44,23.11167,21.79155,32755.98102,,,,1164,,288,288,96,C38H40O16Zr3,0.031914894,8,8c_Zr_1_Ch,78,CC1:C:C(C(:O):O):C(C):C:C:1C(=C(C1:C:C(C):C(:C:C:1C)C(:O):O)C1:C:C(C):C(:C:C:1C)C(:O):O)C1:C:C(C):C(:C:C:1C)C(:O):O,1
SR_ces_v1-4c_B_Ch_v2-6c_Fe_1_Ch_v3-4c_porphyrin_Ch_1B_2CN_Ch_2x2x1,0.34677,0.71362,0.622934,3394.77,2114.72,11.78368,6.32569,66340.77322,,,,1928,,120,120,96,C150Fe3H45N30O13,0.012605042,6,6c_Fe_1_Ch,474,N#CC1:C:C(:C(C#N):C:C:1C(:O):O)C1:C:C2C3:C:C(C#N):C(:C:C:3C#N)C3:C4:C:C:C(:N:4):C4C5:C:C(C#N):C(:C:C:5C#N)C5:C:C(C6:C:C(C#N):C(:C:C:6C#N)C(:O):O):C(:C:C:5C5:C:C(C#N):C(:C:C:5C#N)C5:C6:C:C:C(:N:6):C(C6:C:C(C#N):C(:C:C:6C#N)C:2:C:C:1C1:C:C(C#N):C(:C:C:1C#N)C(:O):O):C1:C:C:C(:[NH]:1):C1C2:C:C(C#N):C(:C:C:2C#N)C2:C:C(C6:C:C(C#N):C(:C:C:6C#N)C(:O):O):C(:C:C:2C2:C:C(C#N):C(:C:C:2C#N)C2:C6:C:C:C(:N:6):C(C6:C:C(C#N):C(:C:C:6C#N)C6:C:C(C7:C:C(C#N):C(:C:C:7C#N)C(:O):O):C(:C:C:6C6:C:C(C#N):C(:C:C:6C#N)C(:C6:C:C:C:1:N:6):C1:C:C:C:5:[NH]:1)C1:C:C(C#N):C(:C:C:1C#N)C(:O):O):C1:C:C:C(:[NH]:1):C1C5:C:C(C#N):C(:C:C:5C#N)C5:C:C(C6:C:C(C#N):C(:C:C:6C#N)C(:O):O):C(:C:C:5C5:C:C(C#N):C(:C:C:5C#N)C(:C5:C:C:C(:N:5):C(C5:C:C(C#N):C(:C:C:5C#N)C5:C:C(C6:C:C(C#N):C(:C:C:6C#N)C(:O):O):C(:C:C:5C5:C:C(C#N):C(:C:C:5C#N)C(:C5:C:C:C:1:N:5):C1:C:C:C:2:[NH]:1)C1:C:C(C#N):C(:C:C:1C#N)C(:O):O):C1:C:C:C:3:[NH]:1):C1:C:C:C:4:[NH]:1)C1:C:C(C#N):C(:C:C:1C#N)C(:O):O)C1:C:C(C#N):C(:C:C:1C#N)C(:O):O)C1:C:C(C#N):C(:C:C:1C#N)C(:O):O,1
SR_diag_v1-3c_Cu_imadazoline_Ch_1B_2TrU_Ch_1x1x1,0.03007,0.98984,0.0288868,7706.3,222.611,66.32702,53.68855,528892.2796,,,,720,,96,96,96,C8Cu1H4N2,0.071428571,3,3c_Cu_imadazoline_Ch,28,C(#CC1:C:N:N:C:1)C1:C:C:C(C#CC2:C:N:N:C:2):C:C:1,1
SR_dea_v1-4c_Cd_1_Ch_v2-3c_B_Ch_v3-3c_B_Ch_1B_2SH_Ch_ntn_edge_2x2x1,0.10178,0.77668,0.565469,3723.9,2105.75,11.83056,8.00237,33792.03658,,,,880,,128,128,128,C28Cd1H14O8S4,0.018518519,4,4c_Cd_1_Ch,54,O:C(:O)C1:C:C(:C:C(:C:1)C1:C:C(:C:C(:C:1)C1:C:C(S):C(:C:C:1S)C(:O):O)C1:C:C(S):C(:C:C:1S)C(:O):O)C(:O):O,1
SR_crsd_v1-8c_Mn_1_Ch_v2-4c_bicyclooctane_Ch_1B_2CN_Ch_ntn_edge_1x1x1,0.2183,0.66408,0.833588,2359.56,1966.9,7.23715,4.40578,22377.78904,,,,840,,160,160,128,C48Cl1H12Mn4N40,0.03960396,8,8c_Mn_1_Ch,"80,10",N#CC1:C:C(C2:N:N:N:N:2):C(C#N):C:C:1C1=CC2(C=C(C3:C:C(C#N):C(:C:C:3C#N)C3:N:N:N:N:3)C1C(=C2)C1:C:C(C#N):C(:C:C:1C#N)C1:N:N:N:N:1)C1:C:C(C#N):C(:C:C:1C#N)C1:N:N:N:N:1___N1:N:N:C(:N:1)C1:N:N:N:N:1,1
SR_ced_v1-3c_triazine_Ch_v2-12c_Mn_1_Ch_1TrU_Ch_1DoU_Ch_2x2x2,0.20166,0.6729,0.862083,2419.35,2085.68,8.02504,5.45461,33231.62493,,,,1096,,336,336,144,C60H24Mn8N18O27,0.062015504,12,12c_Mn_1_Ch,"42,42",OC(:O)C=CC1:N:C(C#CC2:N:C(C=CC(:O):O):N:C(C=CC(:O):O):N:2):N:C(C=CC(:O):O):N:1___OC(:O)C=CC1:N:C(C#CC2:N:C(C=CC(O):O):N:C(C=CC(:O):O):N:2):N:C(C=CC(:O):O):N:1,1
SR_cex_v1-4c_ethene_Ch_v2-12c_Mn_1_Ch_v3-4c_ethene_Ch_1B_4Br_Ch_1x1x1,0.25979,0.41064,2.59002,176.637,457.494,11.55272,6.52062,15665.23862,,,,610,,84,84,36,Br96C174Mn8O27,0.026936027,12,12c_Mn_1_Ch,,None,1
SR_cai_v1-5c_bicyclooctane_Ch_v2-6c_CdZn_1_Ch_ntn_edge_1B_4Br_Ch_2x2x2,0.51304,0.59944,1.56347,396.39,619.742,7.26406,4.11694,77837.80329,,,,3168,,512,512,384,Br12C52Cd3H12N6O13Zn1,0.042105263,6,6c_CdZn_1_Ch,"6,352",O:C(:O)C(:O):O___O:C(:O)N1:C:C2:C(:C:1)C13C4:C:N(:C:C:4C24C2:C:N(:C:C:21)C1:C(Br):C(Br):C(:C(Br):C:1Br)N1:C:C2:C(:C:1)C15C6:C:N(:C:C:6C2(C2:C:N(:C:C:21)C(:O):O)C1:C(Br):C(Br):C(:C(Br):C:1Br)C12C6:C:N(:C:C:6C6(C7:C:N(:C:C:71)C(:O):O)C1:C:N(:C:C:12)C1:C(Br):C(Br):C(:C(Br):C:1Br)N1:C:C2:C(:C:1)C1(C7:C:N(:C:C:7C2(C2:C:N(:C:C:21)C(:O):O)C1:C(Br):C(Br):C4:C(Br):C:1Br)C(:O):O)C1:C(Br):C(Br):C(:C(Br):C:1Br)C12C4:C:N(:C:C:4C4(C7:C:N(:C:C:71)C(:O):O)C1:C:N(:C:C:12)C1:C(Br):C(Br):C(:C(Br):C:1Br)N1:C:C2:C(:C:1)C1(C7:C:N(:C:C:7C2(C2:C:N(:C:C:21)C(:O):O)C1:C(Br):C(Br):C6:C(Br):C:1Br)C(:O):O)C1:C(Br):C(Br):C(:C(Br):C:1Br)C12C6:C:N(:C:C:6C(C6:C:N(:C:C:61)C(:O):O)(C1:C:N(:C:C:12)C1:C(Br):C(Br):C(:C(Br):C:1Br)N1:C:C2:C(:C:1)C1(C6:C:N(:C:C:6C2(C2:C:N(:C:C:21)C(:O):O)C1:C(Br):C(Br):C3:C(Br):C:1Br)C(:O):O)C1:C(Br):C(Br):C4:C(Br):C:1Br)C1:C(Br):C(Br):C5:C(Br):C:1Br)C(:O):O)C(:O):O)C(:O):O)C(:O):O)C(:O):O,1
SR_ceq_v1-6c_Al_1_Ch_v2-6c_bicyclooctane_Ch_v3-3c_triazine_Ch_1B_2SH_Ch_ntn_edge_2x2x2,0.45791,0.56548,1.03426,645.692,667.815,7.16015,3.84532,27743.38664,,,,1200,,120,120,96,Al3C76H28N18O13S12,0.020408163,6,6c_Al_1_Ch,,None,1
SR_ceq_v1-6c_Fe_1_Ch_v2-6c_bicyclooctane_Ch_v3-3c_B_Ch_1DoU_Ch_2TrU_Ch_2x2x2,0.16075,0.83782,0.337127,5912.82,1993.37,13.76681,10.2753,83040.73518,,,,1344,,120,120,96,C118Fe3H34O13,0.018181818,6,6c_Fe_1_Ch,,None,1
SR_crs_v1-6c_CdZn_1_Ch_1B_2F_Ch_1x1x1,0.07491,0.8448,0.567657,2952.58,1676.05,19.04647,13.83082,47689.16007,,,,848,,256,256,192,C24Cd3F6H6O13Zn1,0.081632653,6,6c_CdZn_1_Ch,16,O:C(:O)C1:C:C(F):C(:C:C:1F)C(:O):O,1
SR_csq_v1-4c_ethene_Ch_v2-8c_Zr_1_Ch_1B_2NH2_Ch_1x1x2,0.15118,0.71782,0.7336,1593.56,1169.04,22.95258,21.49074,32452.5217,,,,1068,,288,288,96,C30H32N8O16Zr3,0.034883721,8,8c_Zr_1_Ch,70,NC1:C:C(C(:O):O):C(N):C:C:1C(=C(C1:C:C(N):C(:C:C:1N)C(:O):O)C1:C:C(N):C(:C:C:1N)C(:O):O)C1:C:C(N):C(:C:C:1N)C(:O):O,1
SR_cdz_v1-4c_V_1_Ch_v2-4c_porphyrin_Ch_1DoU_Ch_1B_4H_Ch_2x1x1,0.87356,0.74696,0.557982,3489.94,1947.32,11.19865,7.91795,28516.04575,,,,992,,72,64,64,C34H19N4O4V1,0.016393443,4,4c_V_1_Ch,"10,224,224",O:C(:O)C=CC(:O):O___O:C(:O)C=CC1:C2:C:C:C(:N:2):C2C3:C:C:C(:C:C:3)C3:C4:C:C:C(:N:4):C4C5:C:C:C(:C:C:5)C5:C6:C:C:C(:N:6):C6C7:C:C:C(:C:C:7)C7:C8:C:C:C(:N:8):C(C8:C:C:C(:C:C:8)C(:C8:C:C:C(:N:8):C(C8:C:C:C(:C:C:8)C(:C8:C:C:C(:N:8):C(C=CC(:O):O):C8:C:C:C:3:[NH]:8):C3:C:C:C:4:[NH]:3):C3:C:C:C:1:[NH]:3):C1:C:C:C:2:[NH]:1):C1:C:C:C(:[NH]:1):C(C1:C:C:C(:C:C:1)C(:C1:C:C:C(:N:1):C(C=CC(:O):O):C1:C:C:C:6:[NH]:1):C1:C:C:C:5:[NH]:1):C1:C:C:C(:N:1):C(C=CC(:O):O):C1:C:C:C:7:[NH]:1___O:C(:O)C=CC1:C2:C:C:C(:N:2):C2C3:C:C:C(:C:C:3)C3:C4:C:C:C(:N:4):C4C5:C:C:C(:C:C:5)C5:C6:C:C:C(:N:6):C6C7:C:C:C(:C:C:7)C7:C8:C:C:C(:N:8):C(C=CC(:O):O):C8:C:C:C(:[NH]:8):C(C8:C:C:C(:C:C:8)C(:C8:C:C:C(:N:8):C(C=CC(:O):O):C8:C:C:C:6:[NH]:8):C6:C:C:C:5:[NH]:6):C5:C:C:C(:N:5):C(C5:C:C:C(:C:C:5)C(:C5:C:C:C(:N:5):C(C5:C:C:C(:C:C:5)C(:C5:C:C:C(:N:5):C(C=CC(:O):O):C5:C:C:C:3:[NH]:5):C3:C:C:C:4:[NH]:3):C3:C:C:C:1:[NH]:3):C1:C:C:C:2:[NH]:1):C1:C:C:C:7:[NH]:1,1
SR_cew_v1-4c_porphyrin_Ch_v2-8c_Co_2_Ch_v3-4c_porphyrin_Ch_ntn_edge_1x1x2,0.41679,0.70986,0.669483,2273.23,1521.89,20.4286,15.95724,45520.40312,,,,1542,,120,120,96,C136Cl1Co4H68N48,0.015810277,8,8c_Co_2_Ch,,None,1
SR_cut_v1-8c_Mn_1_Ch_v2-3c_B_Ch_ntn_edge_1B_2TrU_Ch_1x1x3,0.66464,0.86398,0.325391,4276.18,1391.43,22.03055,20.42368,20640.2411,,,,327,,60,60,48,C52Cl1H20Mn4N32,0.038095238,8,8c_Mn_1_Ch,52,C(#CC1:C:C(:C:C(:C:1)C1:N:N:N:N:1)C1:N:N:N:N:1)C1:C:C:C(C#CC2:C:C(:C:C(:C:2)C2:N:N:N:N:2)C2:N:N:N:N:2):C:C:1,1
SR_cut_v1-8c_Co_1_Ch_v2-3c_triazine_Ch_ntn_edge_2TrU_Ch_2x2x2,0.12579,0.86726,0.342985,5083.66,1743.62,17.35982,15.59683,51258.93649,,,,680,,160,160,128,C52Co4N12O17,0.049382716,8,8c_Co_1_Ch,40,O:C(:O)C#CC#CC1:N:C(C#CC#CC(:O):O):N:C(:N:1)C1:N:C(C#CC#CC(:O):O):N:C(C#CC#CC(:O):O):N:1,1
SR_cai_v1-5c_bicyclooctane_Ch_v2-6c_Zn_1_Ch_1TrU_Ch_2TrU_Ch_1x1x2,0.72404,0.823,0.461559,4474.49,2065.24,13.78953,10.37206,35640.05127,,,,728,,128,128,96,C56H12N6O13Zn4,0.045977011,6,6c_Zn_1_Ch,"8,312",O:C(:O)C#CC(:O):O___O:C(:O)C#CN1:C:C2:C(:C:1)C13C#CC#CC45C6:C:N7C#CC#CN8:C:C9:C(:C:8)C8%10C#CC#CC%11%12C%13:C:N%14C#CC#CN%15:C:C%16:C(:C:%15)C%15(C#CC#CC(C:6:C:7)(C6:C:N(C#CC(:O):O):C:C:64)C4:C:N(C#CC(:O):O):C:C:45)C4:C:N(C#CC(:O):O):C:C:4C%16(C#CC#CC45C6:C:N7C#CC#CN%16:C:C%17:C(:C:%16)C%16(C#CC#CC(C:%13:C:%14)(C%13:C:N(C#CC(:O):O):C:C:%13%11)C%11:C:N(C#CC(:O):O):C:C:%11%12)C%11:C:N(C#CC(:O):O):C:C:%11C%17(C#CC#CC%11%12C%13:C:N(C#CC#CN%14:C:C(:C1:C:%14)C2(C#CC#CC(C:6:C:7)(C1:C:N(C#CC(:O):O):C:C:14)C1:C:N(C#CC(:O):O):C:C:15)C1:C:N(C#CC(:O):O):C:C:13):C:C:%13C(C#CC#CC9(C1:C:N(C#CC(:O):O):C:C:18)C1:C:N(C#CC(:O):O):C:C:1%10)(C1:C:N(C#CC(:O):O):C:C:1%11)C1:C:N(C#CC(:O):O):C:C:1%12)C1:C:N(C#CC(:O):O):C:C:1%16)C1:C:N(C#CC(:O):O):C:C:1%15,1
SR_cdm_v1-4c_V_1_Ch_v2-4c_V_1_Ch_ntn_edge_1B_4Br_Ch_2x2x1,2.08123,0.65986,1.39847,1492.78,2087.61,8.26796,5.84346,91211.47668,,,,2624,,864,768,768,Br8C18O12V3,0.078947368,4,4c_V_1_Ch,"6,16",O:C(:O)C(:O):O___O:C(:O)C1:C(Br):C(Br):C(C(:O):O):C(Br):C:1Br,1
SR_cet_v1-3c_B_Ch_v2-6c_Zn_1_Ch_v3-6c_bicyclooctane_Ch_1B_2NO2_Ch_2x2x1,0.15078,0.73212,0.659633,2934.22,1935.51,12.1144,9.6422,98222.21742,,,,2792,,128,128,96,C166H58N36O85Zn4,0.011594203,6,6c_Zn_1_Ch,,None,1
SR_ceq_v1-6c_Al_1_Ch_v2-6c_Al_1_Ch_v3-3c_B_Ch_1DoU_Ch_2x2x2,0.45613,0.77944,0.490208,4296.16,2106.01,11.83773,9.77591,62434.68384,,,,1536,,360,360,288,Al3C30H18O13,0.049180328,6,6c_Al_1_Ch,30,O:C(:O)C=CC1:C:C(C=CC(:O):O):C:C(C=CC(:O):O):C:1,1
SR_cew_v1-4c_ethene_Ch_v2-8c_Co_1_Ch_v3-4c_ethene_Ch_1DoU_Ch_1TrU_Ch_1x1x2,0.43695,0.6745,0.822684,2127.3,1750.1,12.83436,8.17427,16099.49828,,,,534,,120,120,96,C52Co4H16O17,0.047058824,8,8c_Co_1_Ch,252,O:C(:O)C#CC1C=CC2C=CC(C#CC(:O):O)=C(C#CC(:O):O)C=CC3C=CC(C#CC(:O):O)=C(C#CC(:O):O)C=CC4C=CC(C#CC(:O):O)=C(C#CC(:O):O)C=CC5C=CC(C#CC(:O):O)=C(C#CC(:O):O)C=CC6C=CC(C#CC(:O):O)=C(C#CC(:O):O)C=CC(C=CC=1C#CC(:O):O)=C1C=CC(C#CC(:O):O)=C(C#CC(:O):O)C=CC=2C=CC(C#CC(:O):O)=C(C#CC(:O):O)C=CC=3C=CC(C#CC(:O):O)=C(C#CC(:O):O)C=CC=4C=CC(C#CC(:O):O)=C(C#CC(:O):O)C=CC=5C=CC(C#CC(:O):O)=C(C#CC(:O):O)C=CC=6C=CC(C#CC(:O):O)=C(C#CC(:O):O)C=C1,1
SR_btv_v1-5c_bicyclooctane_Ch_v2-6c_Zn_1_Ch_1B_2F_Ch_ntn_edge_2x2x1,0.30446,0.77732,0.588427,3071.02,1807.07,15.08848,13.25753,39703.5128,,,,1112,,128,128,96,C76F14H26N6O13Zn4,0.02962963,6,6c_Zn_1_Ch,,None,1
SR_ceg_v1-3c_triazine_Ch_v2-6c_Ni_1_Ch_v3-4c_B_Ch_1TrU_Ch_1B_4H_Ch_2x2x2,0.23753,0.8432,0.363106,5114.23,1857.01,17.41417,13.27473,82018.73424,,,,1360,,144,144,96,C51H16N9Ni2O7,0.024096386,6,6c_Ni_1_Ch,,None,1
SR_cer_v1-3c_triazine_Ch_v2-6c_bicyclooctane_Ch_v3-6c_Zn_1_Ch_ntn_edge_1B_2NO2_Ch_2x2x1,0.17383,0.68136,0.915842,2163.14,1981.09,8.49151,5.50674,44592.13137,,,,1408,,256,256,192,C37H7N15O25Zn4,0.047619048,6,6c_Zn_1_Ch,166,O:C(:O)C1:N:C(:N:C(:N:1)C1:C:C(:C(:C:C:1N(:O):O)C1=C(C2:C:C(:C(:C:C:2N(:O):O)C2:N:C(:N:C(:N:2)C(:O):O)C(:O):O)N(:O):O)C2C(=C(C3:C:C(:C(:C:C:3N(:O):O)C3:N:C(:N:C(:N:3)C(:O):O)C(:O):O)N(:O):O)C1C(=C2C1:C:C(:C(:C:C:1N(:O):O)C1:N:C(:N:C(:N:1)C(:O):O)C(:O):O)N(:O):O)C1:C:C(:C(:C:C:1N(:O):O)C1:N:C(:N:C(:N:1)C(:O):O)C(:O):O)N(:O):O)C1:C:C(:C(:C:C:1N(:O):O)C1:N:C(:N:C(:N:1)C(:O):O)C(:O):O)N(:O):O)N(:O):O)C(:O):O,1
SR_cai_v1-5c_bicyclooctane_Ch_v2-6c_Ni_1_Ch_1TrU_Ch_2TrU_Ch_ntn_edge_1x1x2,0.94845,0.73616,0.706164,3078.58,2173.98,10.31957,6.75125,21372.7744,,,,688,,144,144,96,C24H7N3Ni2O7,0.048780488,6,6c_Ni_1_Ch,"8,280",O:C(:O)C#CC(:O):O___O:C(:O)N1:C:C2:C(:C:1)C13C#CC#CC45C6:C:N7C#CC#CN8:C:C9:C(:C:8)C8%10C#CC#CC%11%12C%13:C:N%14C#CC#CN%15:C:C%16:C(:C:%15)C%15(C#CC#CC(C:6:C:7)(C6:C:N(:C:C:64)C(:O):O)C4:C:N(:C:C:45)C(:O):O)C4:C:N(:C:C:4C%16(C#CC#CC45C6:C:N7C#CC#CN%16:C:C%17:C(:C:%16)C%16(C#CC#CC(C:%13:C:%14)(C%13:C:N(:C:C:%13%11)C(:O):O)C%11:C:N(:C:C:%11%12)C(:O):O)C%11:C:N(:C:C:%11C%17(C#CC#CC%11%12C%13:C:N(C#CC#CN%14:C:C(:C1:C:%14)C2(C#CC#CC(C:6:C:7)(C1:C:N(:C:C:14)C(:O):O)C1:C:N(:C:C:15)C(:O):O)C1:C:N(:C:C:13)C(:O):O):C:C:%13C(C#CC#CC9(C1:C:N(:C:C:18)C(:O):O)C1:C:N(:C:C:1%10)C(:O):O)(C1:C:N(:C:C:1%11)C(:O):O)C1:C:N(:C:C:1%12)C(:O):O)C1:C:N(:C:C:1%16)C(:O):O)C(:O):O)C1:C:N(:C:C:1%15)C(:O):O)C(:O):O,1
SR_crsd_v1-8c_Co_2_Ch_v2-4c_1anC_Ch_1B_2OH_Ch_ntn_edge_1x1x1,0.26332,0.623,0.96972,1462.18,1417.91,7.07444,3.86874,17153.90452,,,,816,,160,160,128,C41Cl1Co4H24N24O8,0.040816327,8,8c_Co_2_Ch,"12,73",C1:N:N:N:C1C1C:N:N:N:1___OC1:C:C(:C(O):C:C:1C1C:N:N:N:1)C(C1:C:C(O):C(:C:C:1O)C1C:N:N:N:1)(C1:C:C(O):C(:C:C:1O)C1C:N:N:N:1)C1:C:C(O):C(:C:C:1O)C1C:N:N:N:1,1
SR_ced_v1-3c_triazine_Ch_v2-12c_Mn_1_Ch_1B_2thiophene_Ch_ntn_edge_2x2x2,0.16447,0.79196,0.523495,3894.08,2038.53,15.10171,8.51814,109766.2803,,,,2200,,336,336,144,C150H48Mn8N18O27S24,0.029962547,12,12c_Mn_1_Ch,"88,88",OC(:O)C1:C:C2:C:C3:S:C(:C:C:3:C:C:2:S:1)C1:N:C(:N:C(:N:1)C1:C:C2:C:C3:S:C(:C:C:3:C:C:2:S:1)C(:O):O)C1:N:C(:N:C(:N:1)C1:C:C2:C:C3:S:C(:C:C:3:C:C:2:S:1)C(:O):O)C1:C:C2:C:C3:S:C(:C:C:3:C:C:2:S:1)C(:O):O___OC(:O)C1:C:C2:C:C3:S:C(:C:C:3:C:C:2:S:1)C1:N:C(:N:C(:N:1)C1:C:C2:C:C3:S:C(:C:C:3:C:C:2:S:1)C(:O):O)C1:N:C(:N:C(:N:1)C1:C:C2:C:C3:S:C(:C:C:3:C:C:2:S:1)C(:O):O)C1:C:C2:C:C3:S:C(:C:C:3:C:C:2:S:1)C(O):O,1
SR_ced_v1-3c_triazine_Ch_v2-12c_Mn_1_Ch_2B_4H_Ch_2x2x1,0.19549,0.83918,0.35688,5129.43,1830.59,17.42587,10.55361,80900.10965,,,,1532,,168,168,72,C210H120Mn8N18O27,0.021333333,12,12c_Mn_1_Ch,124,OC(:O)C1:C:C:C(:C:C:1)C1:C:C:C(:C:C:1)C1:N:C(:N:C(:N:1)C1:C:C:C(:C:C:1)C1:C:C:C(:C:C:1)C1:N:C(:N:C(:N:1)C1:C:C:C(:C:C:1)C1:C:C:C(:C:C:1)C(:O):O)C1:C:C:C(:C:C:1)C1:C:C:C(:C:C:1)C(O):O)C1:C:C:C(:C:C:1)C1:C:C:C(:C:C:1)C(:O):O,1
SR_crs_v1-6c_CdZn_1_Ch_2B_4CN_Ch_1x1x1,0.05125,0.85298,0.402472,3148.92,1267.35,24.55643,17.17119,114831.2385,,,,1712,,256,256,192,C66Cd3N24O13Zn1,0.038834951,6,6c_CdZn_1_Ch,34,N#CC1:C(C#N):C(:C(C#N):C(C#N):C:1C(:O):O)C1:C(C#N):C(C#N):C(C(:O):O):C(C#N):C:1C#N,1
SR_cdj_v1-3c_triazine_Ch_v2-6c_CdZn_1_Ch_2B_2F_Ch_1x1x1,0.05663,0.91222,0.236473,5236.64,1238.33,28.48786,16.34791,145947.8526,,,,1528,,128,128,96,C105Cd3F30H30N9O13Zn1,0.021390374,6,6c_CdZn_1_Ch,124,O:C(:O)C1:C:C(F):C(:C:C:1F)C1:C:C(F):C(:C:C:1F)C1:N:C(:N:C(:N:1)C1:C:C(F):C(:C:C:1F)C1:C:C(F):C(:C:C:1F)C1:N:C(:N:C(:N:1)C1:C:C(F):C(:C:C:1F)C1:C:C(F):C(:C:C:1F)C(:O):O)C1:C:C(F):C(:C:C:1F)C1:C:C(F):C(:C:C:1F)C(:O):O)C1:C:C(F):C(:C:C:1F)C1:C:C(F):C(:C:C:1F)C(:O):O,1
SR_cena_v1-4c_1anC_Ch_v2-4c_1anC_Ch_v3-4c_Cd_1_Ch_1TrU_Ch_1B_4H_Ch_1x1x1,0.07395,0.84822,0.407953,4676.97,1907.98,17.78252,13.01858,26449.04608,,,,380,,96,96,96,C56Cd3H12O24,0.032608696,4,4c_Cd_1_Ch,"8,112",O:C(:O)C#CC(:O):O___O:C(:O)C#CC12C#CC3(C#CC45C#CC6(C#CC(:O):O)C7:C:C:C(:C:C:7)C(C#CC(:O):O)(C#C4)C4:C:C:C(:C:C:4)C(C#CC(:O):O)(C#C5)C4:C:C:C6:C:C:4)C#CC(C#CC(:O):O)(C4:C:C:C1:C:C:4)C1:C:C:C(:C:C:1)C(C#CC(:O):O)(C#C3)C1:C:C:C2:C:C:1,1
SR_brk_v1-3c_triazine_Ch_v2-3c_triazine_Ch_v3-6c_Zn_1_Ch_ntn_edge_1B_4Br_Ch_1x2x2,0.09612,0.62984,1.50286,1009.07,1516.49,7.41211,4.27765,66218.97012,,,,2080,,512,512,384,Br12C30N6O13Zn4,0.06557377,6,6c_Zn_1_Ch,"45,15",O:C(:O)C1:C(Br):C(Br):C(C2:N:C(:N:C(:N:2)C2:C(Br):C(Br):C(C(:O):O):C(Br):C:2Br)C2:C(Br):C(Br):C(C(:O):O):C(Br):C:2Br):C(Br):C:1Br___O:C(:O)C1:N:C(:N:C(:N:1)C(:O):O)C(:O):O,1
SR_buh_v1-4c_1anC_Ch_v2-12c_Zr_1_Ch_v3-12c_Zr_1_Ch_2B_2NO2_Ch_1x1x1,0.13794,0.65208,0.888901,1737.99,1544.9,12.50709,4.88329,78159.37383,,,,3144,,384,384,192,C159H52N48O128Zr6,0.015503876,12,12c_Zr_1_Ch,125,O:C(:O)C1:C:C(:C(:C:C:1N(:O):O)C1:C:C(:C(:C:C:1N(:O):O)C(C1:C:C(:C(:C:C:1N(:O):O)C1:C:C(:C(:C:C:1N(:O):O)C(:O):O)N(:O):O)N(:O):O)(C1:C:C(:C(:C:C:1N(:O):O)C1:C:C(:C(:C:C:1N(:O):O)C(:O):O)N(:O):O)N(:O):O)C1:C:C(:C(:C:C:1N(:O):O)C1:C:C(:C(:C:C:1N(:O):O)C(:O):O)N(:O):O)N(:O):O)N(:O):O)N(:O):O,1
SR_crsd_v1-8c_Co_2_Ch_v2-4c_bicyclooctane_Ch_1B_2CF3_Ch_ntn_edge_1x1x1,0.20715,0.6027,1.08025,920.728,994.619,6.7145,3.65341,21598.16248,,,,1032,,160,160,128,C56Cl1Co4F24H20N24,0.032,8,8c_Co_2_Ch,"12,100",C1:N:N:N:C1C1C:N:N:N:1___FC(F)(F)C1:C:C(C2C:N:N:N:2):C(:C:C:1C1=CC2(C=C(C3:C:C(:C(:C:C:3C(F)(F)F)C3C:N:N:N:3)C(F)(F)F)C1C(=C2)C1:C:C(:C(:C:C:1C(F)(F)F)C1C:N:N:N:1)C(F)(F)F)C1:C:C(:C(:C:C:1C(F)(F)F)C1C:N:N:N:1)C(F)(F)F)C(F)(F)F,1
SR_ced_v1-3c_triazine_Ch_v2-12c_Mn_1_Ch_1B_2SH_Ch_2x2x2,0.19477,0.63542,0.907813,1817.45,1649.9,8.17647,5.32432,60506.55421,,,,2104,,336,336,144,C120H60Mn8N18O27S30,0.031372549,12,12c_Mn_1_Ch,84,OC(:O)C1:C:C(S):C(:C:C:1S)C1:N:C(:N:C(:N:1)C1:C:C(S):C(:C:C:1S)C1:N:C(:N:C(:N:1)C1:C:C(S):C(:C:C:1S)C(:O):O)C1:C:C(S):C(:C:C:1S)C(O):O)C1:C:C(S):C(:C:C:1S)C(:O):O,1
SR_cew_v1-4c_porphyrin_Ch_v2-8c_Co_1_Ch_v3-4c_B_Ch_ntn_edge_2x2x2,0.33009,0.60776,0.948421,1432.51,1358.62,13.55967,7.57923,96423.39146,,,,4344,,480,480,384,C100Co4H44N16O17,0.02259887,8,8c_Co_1_Ch,,None,1
SR_crs_v1-6c_CdZn_1_Ch_2TrU_Ch_1x1x1,0.05198,0.90108,0.379172,3696.18,1401.49,22.19502,17.48237,57934.53271,,,,560,,256,256,192,C18Cd3O13Zn1,0.129032258,6,6c_CdZn_1_Ch,10,O:C(:O)C#CC#CC(:O):O,1
SR_cdm_v1-4c_Cu_1_Ch_v2-4c_porphyrin_Ch_ntn_edge_1B_2OH_Ch_2x2x1,0.31562,0.74262,0.614836,3705.3,2278.15,11.03271,7.03695,116517.3875,,,,4160,,288,256,256,C34Cu1H18N4O8,0.015625,4,4c_Cu_1_Ch,,None,1
SR_csq_v1-4c_ethene_Ch_v2-8c_Co_1_Ch_1TrU_Ch_1x1x2,0.30546,0.71954,0.827419,1832.78,1516.48,16.15196,14.00006,11755.32978,,,,294,,120,120,96,C28Co4O17,0.088888889,8,8c_Co_1_Ch,22,O:C(:O)C#CC(C#CC(:O):O)=C(C#CC(:O):O)C#CC(:O):O,1
SR_csq_v1-4c_ethene_Ch_v2-8c_Co_1_Ch_ntn_edge_2x2x3,1.08517,0.51642,1.77546,609.324,1081.83,11.40919,10.93494,25427.91589,,,,1188,,720,720,576,C12Co4O17,0.137931034,8,8c_Co_1_Ch,14,O:C(:O)C(=C(C(:O):O)C(:O):O)C(:O):O,1
SR_ced_v1-3c_B_Ch_v2-12c_Mn_1_Ch_1TrU_Ch_2x2x2,0.17616,0.69788,0.764247,2977.88,2275.83,9.26593,5.94078,36691.57558,,,,1048,,336,336,144,C78H18Mn8O27,0.06504065,12,12c_Mn_1_Ch,40,OC(:O)C#CC1:C:C(C#CC(:O):O):C:C(C#CC2:C:C(C#CC(O):O):C:C(C#CC(:O):O):C:2):C:1,1
SR_cdn_v1-4c_V_1_Ch_v2-4c_V_1_Ch_1B_2Br_Ch_2x2x1,0.79048,0.73264,0.961656,1951.13,1876.31,11.85288,9.53967,164819.5583,,,,4352,,1152,1024,1024,Br2C8H2O4V1,0.0625,4,4c_V_1_Ch,16,O:C(:O)C1:C:C(Br):C(:C:C:1Br)C(:O):O,1
SR_ced_v1-3c_triazine_Ch_v2-12c_Mn_1_Ch_1B_2CH3_Ch_2x2x2,0.22022,0.64848,0.777448,2008.13,1561.22,9.54471,5.96007,60120.86884,,,,2584,,336,336,144,C150H120Mn8N18O27,0.025396825,12,12c_Mn_1_Ch,104,CC1:C:C(C2:N:C(:N:C(:N:2)C2:C:C(C):C(:C:C:2C)C2:N:C(:N:C(:N:2)C2:C:C(C):C(:C:C:2C)C(:O):O)C2:C:C(C):C(:C:C:2C)C(O):O)C2:C:C(C):C(:C:C:2C)C(:O):O):C(C):C:C:1C(O):O,1
SR_can_v1-4c_In_1_Ch_1B_2indole_Ch_1x1x1,0.07238,0.92952,0.177107,5798.05,1026.88,31.2892,28.80744,79197.28511,,,,588,,96,96,96,C24H12In1N4O8,0.020833333,4,4c_In_1_Ch,24,O:C(:O)C1:C:C2:C:C3:[NH]:C(:C:C:3:C:C:2:[NH]:1)C(:O):O,1