name,k,VF,density,ASA_grav,ASA_vol,LPD,PLD,volume,,,,N_atoms,,N_metal_containing_bonds,N_metal_nonmetal_bonds,N_metal_linker_bonds,formula,metal_nonmetal_ratio,metal_node_connectivity,metal_node_name,N_atoms_per_linker,linker_SMILES,N_ccs
SR_cee_v1-3c_triazine_Ch_v2-6c_B_Ch_v3-4c_Ni_1_Ch_2B_2NH2_Ch_1x1x2,0.11686,0.8815,0.249018,6028.51,1501.21,20.65604,17.45212,80648.51738,,,,1176,,54,48,48,C42H36N15Ni1O4,0.010309278,4,4c_Ni_1_Ch,,None,1
SR_cdme_v1-4c_Cu_1_Ch_v2-4c_Cu_1_Ch_v3-4c_1anC_Ch_v4-4c_porphyrin_Ch_ntn_edge_1B_2SH_Ch_2x2x1,0.17292,0.6827,0.81953,2320.85,1902,8.85057,6.8293,43054.65332,,,,1656,,216,192,192,C101Cu6H52N8O24S16,0.029850746,4,4c_Cu_1_Ch,"61,70",O:C(:O)C1:C:C(S):C(:C:C:1S)C(C1:C:C(S):C(:C:C:1S)C(:O):O)(C1:C:C(S):C(:C:C:1S)C(:O):O)C1:C:C(S):C(:C:C:1S)C(:O):O___O:C(:O)C1:C:C(S):C(:C:C:1S)C1:C2:C:C:C(:N:2):C(C(:O):O):C2:C:C:C(:[NH]:2):C(C(:O):O):C2:C:C:C(:N:2):C(C2:C:C(S):C(:C:C:2S)C(:O):O):C2:C:C:C:1:[NH]:2,1
SR_ceh_v1-3c_B_Ch_v2-6c_Mg_1_Ch_v3-4c_1anC_Ch_2B_2CH3_Ch_1x1x3,0.21619,0.6669,0.616434,2650.59,1633.91,10.72519,8.01104,46059.53478,,,,2043,,90,90,36,C113H104Mg2O8,0.008888889,6,6c_Mg_1_Ch,,None,1
SR_cet_v1-3c_triazine_Ch_v2-6c_Zr_1_Ch_v3-6c_bicyclooctane_Ch_2B_2NH2_Ch_1x1x1,0.08089,0.87996,0.266394,5027.51,1339.3,22.8947,18.76323,82397.81104,,,,1252,,96,96,24,C128H121N45O16Zr3,0.009677419,6,6c_Zr_1_Ch,,None,1
SR_cai_v1-5c_bicyclooctane_Ch_v2-6c_Ni_1_Ch_1TrU_Ch_ntn_edge_1x1x3,0.67721,0.57922,1.17289,1159.74,1360.25,8.22787,7.35141,18213.56494,,,,960,,216,216,144,C21H7N3Ni2O7,0.052631579,6,6c_Ni_1_Ch,"396,6",O:C(:O)C#CN1:C:C2:C(:C:1)C13C4:C:N(C#CC(:O):O):C:C:4C24C2:C:N(:C:C:21)N1:C:C2:C(:C:1)C15C6:C:N(C#CC(:O):O):C:C:6C2(C2:C:N(C#CC(:O):O):C:C:21)C12C6:C:N(C#CC(:O):O):C:C:6C6(C7:C:N(C#CC(:O):O):C:C:71)C1:C:N(:C:C:12)N1:C:C2:C(:C:1)C1(C7:C:N(C#CC(:O):O):C:C:7C24C2:C:N(C#CC(:O):O):C:C:21)C12C4:C:N(C#CC(:O):O):C:C:4C4(C7:C:N(C#CC(:O):O):C:C:71)C1:C:N(:C:C:12)N1:C:C2:C(:C:1)C1(C7:C:N(C#CC(:O):O):C:C:7C26C2:C:N(C#CC(:O):O):C:C:21)C12C6:C:N(C#CC(:O):O):C:C:6C6(C7:C:N(C#CC(:O):O):C:C:71)C1:C:N(:C:C:12)N1:C:C2:C(:C:1)C1(C7:C:N(C#CC(:O):O):C:C:7C24C2:C:N(C#CC(:O):O):C:C:21)C12C4:C:N(C#CC(:O):O):C:C:4C4(C7:C:N(C#CC(:O):O):C:C:71)C1:C:N(:C:C:12)N1:C:C2:C(:C:1)C61C6:C:N(C#CC(:O):O):C:C:6C2(C2:C:N(C#CC(:O):O):C:C:21)C12C6:C:N(C#CC(:O):O):C:C:6C5(C5:C:N(C#CC(:O):O):C:C:51)C1:C:N(:C:C:12)N1:C:C2:C(:C:1)C41C4:C:N(C#CC(:O):O):C:C:4C23C2:C:N(C#CC(:O):O):C:C:21___O:C(:O)C(:O):O,1
SR_buh_v1-4c_bicyclooctane_Ch_v2-12c_Zr_1_Ch_v3-12c_Zr_1_Ch_2B_4H_Ch_1x1x1,0.15726,0.80564,0.436293,4559.83,1989.42,17.37309,8.96158,101533.3948,,,,2640,,384,384,192,C90H56O16Zr3,0.018518519,12,12c_Zr_1_Ch,104,O:C(:O)C1:C:C:C(:C:C:1)C1:C:C:C(:C:C:1)C1=CC2(C=C(C3:C:C:C(:C:C:3)C3:C:C:C(:C:C:3)C(:O):O)C1C(=C2)C1:C:C:C(:C:C:1)C1:C:C:C(:C:C:1)C(:O):O)C1:C:C:C(:C:C:1)C1:C:C:C(:C:C:1)C(:O):O,1
SR_ceh_v1-3c_B_Ch_v2-6c_Mg_1_Ch_v3-4c_bicyclooctane_Ch_3B_fused_8H_Ch_1x1x2,0.27085,0.80078,0.396901,5342.67,2120.51,15.56262,10.1772,45086.58232,,,,1068,,60,60,24,C54H30Mg1O4,0.011363636,6,6c_Mg_1_Ch,,None,1
SR_cdl_v1-4c_Cu_1_Ch_2B_1TrU_Ch_1x1x1,0.4414,0.9209,0.187943,6844.91,1286.45,20.67679,14.51735,92675.74974,,,,928,,144,128,128,C16Cu1H8O4,0.035714286,4,4c_Cu_1_Ch,28,O:C(:O)C1:C:C:C(C#CC2:C:C:C(:C:C:2)C(:O):O):C:C:1,1
SR_cdj_v1-3c_pyrrole_Ch_v2-6c_CdZn_1_Ch_ntn_edge_1B_2SH_Ch_1x1x1,0.10005,0.65588,0.967133,1796.74,1737.69,10.02391,4.63954,23578.7145,,,,928,,128,128,96,C54Cd3H30N3O13S12Zn1,0.035714286,6,6c_CdZn_1_Ch,74,O:C(:O)C1:C:C(S):C(:C:C:1S)C1:C:C:C(C2:C:C(S):C(:C:C:2S)C(:O):O):N:1N1:C(:C:C:C:1C1:C:C(S):C(:C:C:1S)C(:O):O)C1:C:C(S):C(:C:C:1S)C(:O):O,1
SR_cen_v1-12c_Mn_1_Ch_v2-4c_1anC_Ch_1TrU_Ch_1B_4H_Ch_2x2x2,0.8331,0.48818,1.41862,0,0,6.96269,2.09899,16248.09549,,,,760,,336,336,144,C52H8Mn8O27,0.091954023,12,12c_Mn_1_Ch,"42,42",O:C(:O)C#CC(C#CC(:O):O)(C#CC(:O):O)C1:C:C:C(:C:C:1)C(C#CC(:O):O)(C#CC(:O):O)C#CC(:O):O___OC(:O)C#CC(C#CC(O):O)(C#CC(O):O)C1:C:C:C(:C:C:1)C(C#CC(O):O)(C#CC(O):O)C#CC(O):O,1
SR_dgn_v1-3c_Cu_imadazoline_Ch_v2-3c_B_Ch_1B_2CF3_Ch_1x1x1,0.03514,0.9135,0.257188,5144.24,1323.03,31.37132,21.88712,129864.3746,,,,1416,,144,144,144,C27Cu3F12H11N6,0.053571429,3,3c_Cu_imadazoline_Ch,"78,30",FC(F)(F)C1:C:C(C2:C:C(:C:C(:C:2)C2:C:C(:C(:C:C:2C(F)(F)F)C2:C:N:N:C:2)C(F)(F)F)C2:C:C(:C(:C:C:2C(F)(F)F)C2:C:N:N:C:2)C(F)(F)F):C(:C:C:1C1:C:N:N:C:1)C(F)(F)F___FC(F)(F)C1:C:C(C2:C:N:N:C:2):C(:C:C:1C1:C:N:N:C:1)C(F)(F)F,1
SR_ced_v1-3c_triazine_Ch_v2-12c_Mn_1_Ch_1B_4H_Ch_1DoU_Ch_2x2x2,0.19391,0.7068,0.703659,3068.5,2159.17,9.72252,5.73332,54008.55303,,,,1720,,336,336,144,C108H54Mn8N18O27,0.038647343,12,12c_Mn_1_Ch,"68,68",OC(:O)C1:C:C:C(:C:C:1)C1:N:C(C=CC2:N:C(:N:C(:N:2)C2:C:C:C(:C:C:2)C(:O):O)C2:C:C:C(:C:C:2)C(:O):O):N:C(:N:1)C1:C:C:C(:C:C:1)C(:O):O___OC(:O)C1:C:C:C(:C:C:1)C1:N:C(C=CC2:N:C(:N:C(:N:2)C2:C:C:C(:C:C:2)C(:O):O)C2:C:C:C(:C:C:2)C(O):O):N:C(:N:1)C1:C:C:C(:C:C:1)C(:O):O,1
SR_cdl_v1-4c_V_1_Ch_2B_2OH_Ch_1x1x1,0.24043,0.86118,0.338858,5536.34,1876.03,15.07015,9.44166,55692.47388,,,,992,,144,128,128,C14H8O8V1,0.033333333,4,4c_V_1_Ch,30,O:C(:O)C1:C:C(O):C(:C:C:1O)C1:C:C(O):C(:C:C:1O)C(:O):O,1
SR_ceh_v1-3c_triazine_Ch_v2-6c_B_Ch_v3-4c_Cd_1_Ch_ntn_edge_2B_4F_Ch_1x1x2,0.12638,0.77048,0.646223,3125.93,2020.05,12.08135,8.56801,29393.21524,,,,642,,48,48,48,C60Cd1F32N6O8,0.009433962,4,4c_Cd_1_Ch,318,O:C(:O)C1:C(F):C(F):C(:C(F):C:1F)C1:C(F):C(F):C(C2:N:C(:N:C(:N:2)C2:C(C3:N:C(:N:C(:N:3)C3:C(F):C(F):C(:C(F):C:3F)C3:C(F):C(F):C(C(:O):O):C(F):C:3F)C3:C(F):C(F):C(:C(F):C:3F)C3:C(F):C(F):C(C(:O):O):C(F):C:3F):C(C3:N:C(:N:C(:N:3)C3:C(F):C(F):C(:C(F):C:3F)C3:C(F):C(F):C(C(:O):O):C(F):C:3F)C3:C(F):C(F):C(:C(F):C:3F)C3:C(F):C(F):C(C(:O):O):C(F):C:3F):C(C3:N:C(:N:C(:N:3)C3:C(F):C(F):C(:C(F):C:3F)C3:C(F):C(F):C(C(:O):O):C(F):C:3F)C3:C(F):C(F):C(:C(F):C:3F)C3:C(F):C(F):C(C(:O):O):C(F):C:3F):C(C3:N:C(:N:C(:N:3)C3:C(F):C(F):C(:C(F):C:3F)C3:C(F):C(F):C(C(:O):O):C(F):C:3F)C3:C(F):C(F):C(:C(F):C:3F)C3:C(F):C(F):C(C(:O):O):C(F):C:3F):C:2C2:N:C(:N:C(:N:2)C2:C(F):C(F):C(:C(F):C:2F)C2:C(F):C(F):C(C(:O):O):C(F):C:2F)C2:C(F):C(F):C(:C(F):C:2F)C2:C(F):C(F):C(C(:O):O):C(F):C:2F)C2:C(F):C(F):C(:C(F):C:2F)C2:C(F):C(F):C(C(:O):O):C(F):C:2F):C(F):C:1F,1
SR_cmc_v1-4c_In_1_Ch_v2-4c_bicyclooctane_Ch_v3-4c_bicyclooctane_Ch_2B_2NO2_Ch_1x1x1,0.03118,0.91714,0.19887,4706.04,935.891,63.81122,61.65843,280876.0512,,,,2736,,128,128,128,C76H26In1N20O48,0.005882353,4,4c_In_1_Ch,,None,1
SR_ctnd_v1-3c_Cu_imadazoline_Ch_v2-3c_Cu_imadazoline_Ch_1B_2Br_Ch_1x1x1,0.05005,0.96466,0.125869,4900.72,616.847,36.06019,26.68639,390324.2929,,,,1560,,240,240,240,Br1C6Cu1H3N2,0.083333333,3,3c_Cu_imadazoline_Ch,24,BrC1:C:C(C2:C:N:N:C:2):C(Br):C:C:1C1:C:N:N:C:1,1
SR_cee_v1-3c_B_Ch_v2-6c_Mg_1_Ch_v3-4c_porphyrin_Ch_1B_2SH_Ch_1x1x2,0.1211,0.83558,0.35989,4887.19,1758.85,17.01014,14.88953,48926.91572,,,,840,,60,60,24,C36H21Mg1N2O4S6,0.014492754,6,6c_Mg_1_Ch,260,O:C(:O)C1:C:C(S):C(:C:C:1S)C1:C:C2:C:C(:C:1)C1:C:C(S):C(:C:C:1S)C1:C3:C:C:C(:N:3):C3C4:C:C(S):C(:C:C:4S)C4:C:C(:C:C(:C:4)C4:C:C(S):C(:C:C:4S)C4:C5:C:C:C(:N:5):C(C5:C:C(S):C2:C:C:5S):C2:C:C:C(:[NH]:2):C2C5:C:C(S):C(:C:C:5S)C5:C:C(:C:C(:C:5)C5:C:C(S):C(:C:C:5S)C(:C5:C:C:C(:N:5):C(C5:C:C(S):C(:C:C:5S)C5:C:C(:C:C(:C:5)C5:C:C(S):C(:C:C:5S)C(:C5:C:C:C:2:N:5):C2:C:C:C:4:[NH]:2)C2:C:C(S):C(:C:C:2S)C(:O):O):C2:C:C:C:3:[NH]:2):C2:C:C:C:1:[NH]:2)C1:C:C(S):C(:C:C:1S)C(:O):O)C1:C:C(S):C(:C:C:1S)C(:O):O,1
SR_cdn_v1-4c_V_1_Ch_v2-4c_V_1_Ch_1B_2SH_Ch_2x2x1,0.56481,0.72922,0.721683,2325.12,1678,11.93547,9.80578,164453.4137,,,,4864,,1152,1024,1024,C8H4O4S2V1,0.055555556,4,4c_V_1_Ch,18,O:C(:O)C1:C:C(S):C(:C:C:1S)C(:O):O,1
SR_cez_v1-4c_Ni_1_Ch_v2-6c_B_Ch_v3-3c_B_Ch_1TrU_Ch_1DoU_Ch_2x2x2,0.67769,0.6961,0.743562,2656.49,1975.26,7.63114,5.04571,77817.38938,,,,2400,,432,384,384,C15H5Ni1O4,0.041666667,4,4c_Ni_1_Ch,144,O:C(:O)C#CC1:C:C(C#CC(:O):O):C:C(C=CC2:C(C=CC3:C:C(C#CC(:O):O):C:C(C#CC(:O):O):C:3):C(C=CC3:C:C(C#CC(:O):O):C:C(C#CC(:O):O):C:3):C(C=CC3:C:C(C#CC(:O):O):C:C(C#CC(:O):O):C:3):C(C=CC3:C:C(C#CC(:O):O):C:C(C#CC(:O):O):C:3):C:2C=CC2:C:C(C#CC(:O):O):C:C(C#CC(:O):O):C:2):C:1,1
SR_btv_v1-5c_bicyclooctane_Ch_v2-6c_Zr_1_Ch_ntn_edge_1TrU_Ch_2x2x2,0.60277,0.71428,0.809974,1927.54,1561.26,13.36634,11.553,58068.33386,,,,2016,,768,768,192,C24H17N3O16Zr3,0.05,6,6c_Zr_1_Ch,"288,6",O:C(:O)C#CN1:C:C2:C(:C:1)C13C#CC45C6:C:N(C#CC(:O):O):C:C:6C6(C#CC78C9:C:N(C#CC(:O):O):C:C:9C9(C#CC%10%11C%12:C:N(C#CC(:O):O):C:C:%12C%12(C#CC2(C2:C:N(C#CC(:O):O):C:C:21)C1:C:N(C#CN2:C:C%13:C(:C:2)C2%14C#CC%15%16C%17:C:N(C#CC(:O):O):C:C:%17C(C#CC%17%18C%19:C:N(C#CC(:O):O):C:C:%19C(C#CC%19%20C%21:C:N(C#CC(:O):O):C:C:%21C(C#CC%13(C%13:C:N(C#CC(:O):O):C:C:%132)C2:C:N(C#CC(:O):O):C:C:2%14)(C2:C:N(C#CC(:O):O):C:C:2%19)C2:C:N(C#CN%13:C:C%12:C%10:C:%13):C:C:2%20)(C2:C:N(C#CC(:O):O):C:C:2%17)C2:C:N(C#CN%10:C:C9:C7:C:%10):C:C:2%18)(C2:C:N(C#CC(:O):O):C:C:2%15)C2:C:N(C#CN7:C:C4:C6:C:7):C:C:2%16):C:C:13)C1:C:N(C#CC(:O):O):C:C:1%11)C1:C:N(C#CC(:O):O):C:C:18)C1:C:N(C#CC(:O):O):C:C:15___O:C(:O)C(:O):O,1
SR_ced_v1-3c_triazine_Ch_v2-12c_Mn_1_Ch_1B_2TrU_Ch_ntn_edge_1x1x2,0.16054,0.85436,0.335725,5581.52,1873.86,16.98943,12.15168,33985.64474,,,,502,,84,84,36,C150H48Mn8N18O27,0.032921811,12,12c_Mn_1_Ch,80,OC(:O)C#CC1:C:C:C(C#CC2:N:C(C#CC3:C:C:C(C#CC(:O):O):C:C:3):N:C(:N:2)C2:N:C(C#CC3:C:C:C(C#CC(O):O):C:C:3):N:C(C#CC3:C:C:C(C#CC(:O):O):C:C:3):N:2):C:C:1,1
SR_clh_v1-3c_B_Ch_v2-3c_Cu_imadazoline_Ch_2TrU_Ch_1TrU_Ch_1DoU_Ch_2x2x1,0.15726,0.93896,0.177886,6542.97,1163.9,19.81178,14.91439,82903.84174,,,,704,,96,96,96,C22Cu3H13N6,0.073170732,3,3c_Cu_imadazoline_Ch,"16,66",C(#CC1:C:N:N:C:1)C1:C:N:N:C:1___C(C#CC1:C:C(C=CC2:C:N:N:C:2):C:C(C=CC2:C:N:N:C:2):C:1)#CC1:C:C(C=CC2:C:N:N:C:2):C:C(C=CC2:C:N:N:C:2):C:1,1
SR_cdl_v1-4c_Cu_1_Ch_1B_2CF3_Ch_2x2x1,0.3559,0.70882,0.892203,2497.95,2228.68,9.31063,5.71246,86633.59071,,,,2944,,576,512,512,C10Cu1F6H2O4,0.045454545,4,4c_Cu_1_Ch,22,O:C(:O)C1:C:C(:C(:C:C:1C(F)(F)F)C(:O):O)C(F)(F)F,1
SR_buh_v1-4c_bicyclooctane_Ch_v2-12c_Eu_1_Ch_v3-12c_Eu_1_Ch_1B_4H_Ch_1DoU_Ch_1x1x1,0.17478,0.66654,0.975659,1827.79,1783.29,11.5846,5.36919,35904.77621,,,,1536,,384,384,192,C48Eu3H29O16,0.032258065,12,12c_Eu_1_Ch,58,O:C(:O)C=CC1=CC2(C=C(C3:C:C:C(:C:C:3)C(:O):O)C1C(=C2)C1:C:C:C(:C:C:1)C(:O):O)C1:C:C:C(:C:C:1)C(:O):O,1
SR_ceu_v1-4c_B_Ch_v2-6c_Ni_1_Ch_v3-4c_porphyrin_Ch_1B_4Br_Ch_2x2x1,0.14926,0.68314,1.24991,1428.25,1785.19,11.63126,8.0163,138032.6834,,,,3536,,288,288,192,Br48C126H23N6Ni4O14,0.01843318,6,6c_Ni_1_Ch,426,O:C(:O)C1:C(Br):C(Br):C(C2:C:C3:C(:C:C:2C2:C(Br):C(Br):C(C(:O):O):C(Br):C:2Br)C2:C(Br):C(Br):C(:C(Br):C:2Br)C2:C4:C:C:C(:N:4):C4C5:C(Br):C(Br):C(C6:C:C(:C(:C:C:6C6:C(Br):C(Br):C(:C(Br):C:6Br)C6:C7:C:C:C(:N:7):C(C7:C(Br):C(Br):C3:C(Br):C:7Br):C3:C:C:C(:[NH]:3):C3C7:C(Br):C(Br):C(C8:C:C(:C(:C:C:8C8:C(Br):C(Br):C(:C(Br):C:8Br)C8:C9:C:C:C(:N:9):C(C9:C(Br):C(Br):C(C%10:C:C(:C(:C:C:%10C%10:C(Br):C(Br):C(:C(Br):C:%10Br)C(:C%10:C:C:C:3:N:%10):C3:C:C:C:6:[NH]:3)C3:C(Br):C(Br):C(C(:O):O):C(Br):C:3Br)C3:C(Br):C(Br):C(C(:O):O):C(Br):C:3Br):C(Br):C:9Br):C3:C:C:C(:[NH]:3):C3C6:C(Br):C(Br):C(C9:C:C(:C(:C:C:9C9:C(Br):C(Br):C(:C(Br):C:9Br)C(:C9:C:C:C(:N:9):C(C9:C(Br):C(Br):C(C%10:C:C(:C(:C:C:%10C%10:C(Br):C(Br):C(:C(Br):C:%10Br)C(:C%10:C:C:C:3:N:%10):C3:C:C:C:8:[NH]:3)C3:C(Br):C(Br):C(C(:O):O):C(Br):C:3Br)C3:C(Br):C(Br):C(C(:O):O):C(Br):C:3Br):C(Br):C:9Br):C3:C:C:C:2:[NH]:3):C2:C:C:C:4:[NH]:2)C2:C(Br):C(Br):C(C(:O):O):C(Br):C:2Br)C2:C(Br):C(Br):C(C(:O):O):C(Br):C:2Br):C(Br):C:6Br)C2:C(Br):C(Br):C(C(:O):O):C(Br):C:2Br)C2:C(Br):C(Br):C(C(:O):O):C(Br):C:2Br):C(Br):C:7Br)C2:C(Br):C(Br):C(C(:O):O):C(Br):C:2Br)C2:C(Br):C(Br):C(C(:O):O):C(Br):C:2Br):C(Br):C:5Br):C(Br):C:1Br,1
SR_ced_v1-3c_B_Ch_v2-12c_Mn_1_Ch_2B_1TrU_Ch_ntn_edge_1x1x1,0.15878,0.8595,0.304306,5704.68,1735.97,18.86851,12.73943,22556.84943,,,,365,,42,42,18,C216H114Mn8O27,0.022408964,12,12c_Mn_1_Ch,118,OC(:O)C1:C:C:C(C#CC2:C:C:C(:C:C:2)C2:C:C(:C:C(:C:2)C2:C:C(:C:C(:C:2)C2:C:C:C(C#CC3:C:C:C(:C:C:3)C(:O):O):C:C:2)C2:C:C:C(C#CC3:C:C:C(:C:C:3)C(O):O):C:C:2)C2:C:C:C(C#CC3:C:C:C(:C:C:3)C(:O):O):C:C:2):C:C:1,1
SR_cai_v1-5c_bicyclooctane_Ch_v2-6c_Ni_1_Ch_1DoU_Ch_1B_4H_Ch_ntn_edge_1x1x2,0.33125,0.74566,0.638623,3059.66,1953.97,11.20128,9.35478,27174.79515,,,,944,,144,144,96,C30H17N3Ni2O7,0.035087719,6,6c_Ni_1_Ch,"6,416",O:C(:O)C(:O):O___O:C(:O)C=CN1:C:C2:C(:C:1)C13C4:C:C:C(:C:C:4)C45C6:C:N(C=CC(:O):O):C:C:6C6(C7:C:C:C(:C:C:7)C78C9:C:N(C=CC(:O):O):C:C:9C9(C%10:C:C:C(:C:C:%10)C%10%11C%12:C:N(C=CC(:O):O):C:C:%12C%12(C%13:C:C:C(:C:C:%13)C2(C2:C:N(C=CC(:O):O):C:C:21)C1:C:N(:C:C:13)C1:C:C:C(:C:C:1)N1:C:C2:C(:C:1)C13C%13:C:C:C(:C:C:%13)C%13%14C%15:C:N(C=CC(:O):O):C:C:%15C(C%15:C:C:C(:C:C:%15)C%15%16C%17:C:N(C=CC(:O):O):C:C:%17C(C%17:C:C:C(:C:C:%17)C%17%18C%19:C:N(C=CC(:O):O):C:C:%19C(C%19:C:C:C(:C:C:%19)C2(C2:C:N(C=CC(:O):O):C:C:21)C1:C:N(C=CC(:O):O):C:C:13)(C1:C:N(C=CC(:O):O):C:C:1%17)C1:C:N(:C:C:1%18)C1:C:C:C(:C:C:1)N1:C:C%12:C%10:C:1)(C1:C:N(C=CC(:O):O):C:C:1%15)C1:C:N(:C:C:1%16)C1:C:C:C(:C:C:1)N1:C:C9:C7:C:1)(C1:C:N(C=CC(:O):O):C:C:1%13)C1:C:N(:C:C:1%14)C1:C:C:C(:C:C:1)N1:C:C4:C6:C:1)C1:C:N(C=CC(:O):O):C:C:1%11)C1:C:N(C=CC(:O):O):C:C:18)C1:C:N(C=CC(:O):O):C:C:15,1
SR_csq_v1-4c_ethene_Ch_v2-8c_Zr_1_Ch_1B_4Br_Ch_1x1x2,0.12271,0.6303,1.51962,459.039,697.563,23.10332,21.3662,32977.20886,,,,876,,288,288,96,Br16C30H8O16Zr3,0.042857143,8,8c_Zr_1_Ch,54,O:C(:O)C1:C(Br):C(Br):C(C(=C(C2:C(Br):C(Br):C(C(:O):O):C(Br):C:2Br)C2:C(Br):C(Br):C(C(:O):O):C(Br):C:2Br)C2:C(Br):C(Br):C(C(:O):O):C(Br):C:2Br):C(Br):C:1Br,1
SR_cai_v1-5c_bicyclooctane_Ch_v2-6c_Ni_1_Ch_1DoU_Ch_1B_4H_Ch_1x1x2,0.40539,0.75328,0.61011,3263.7,1991.21,11.68739,9.85749,28934.30384,,,,976,,144,144,96,C31H18N3Ni2O7,0.033898305,6,6c_Ni_1_Ch,"10,416",O:C(:O)C=CC(:O):O___O:C(:O)C=CN1:C:C2:C(:C:1)C13C4:C:C:C(:C:C:4)C45C6:C:N(C=CC(:O):O):C:C:6C6(C7:C:C:C(:C:C:7)C78C9:C:N(C=CC(:O):O):C:C:9C9(C%10:C:C:C(:C:C:%10)C%10%11C%12:C:N(C=CC(:O):O):C:C:%12C%12(C%13:C:C:C(:C:C:%13)C2(C2:C:N(C=CC(:O):O):C:C:21)C1:C:N(:C:C:13)C1:C:C:C(:C:C:1)N1:C:C2:C(:C:1)C13C%13:C:C:C(:C:C:%13)C%13%14C%15:C:N(C=CC(:O):O):C:C:%15C(C%15:C:C:C(:C:C:%15)C%15%16C%17:C:N(C=CC(:O):O):C:C:%17C(C%17:C:C:C(:C:C:%17)C%17%18C%19:C:N(C=CC(:O):O):C:C:%19C(C%19:C:C:C(:C:C:%19)C2(C2:C:N(C=CC(:O):O):C:C:21)C1:C:N(C=CC(:O):O):C:C:13)(C1:C:N(C=CC(:O):O):C:C:1%17)C1:C:N(:C:C:1%18)C1:C:C:C(:C:C:1)N1:C:C%12:C%10:C:1)(C1:C:N(C=CC(:O):O):C:C:1%15)C1:C:N(:C:C:1%16)C1:C:C:C(:C:C:1)N1:C:C9:C7:C:1)(C1:C:N(C=CC(:O):O):C:C:1%13)C1:C:N(:C:C:1%14)C1:C:C:C(:C:C:1)N1:C:C4:C6:C:1)C1:C:N(C=CC(:O):O):C:C:1%11)C1:C:N(C=CC(:O):O):C:C:18)C1:C:N(C=CC(:O):O):C:C:15,1
SR_buh_v1-4c_bicyclooctane_Ch_v2-12c_Zr_1_Ch_v3-12c_Zr_1_Ch_2B_4Br_Ch_1x1x1,0.09385,0.67136,1.41059,1198.22,1690.21,14.44222,5.92381,102739.7391,,,,2640,,384,384,192,Br48C90H8O16Zr3,0.018518519,12,12c_Zr_1_Ch,104,O:C(:O)C1:C(Br):C(Br):C(:C(Br):C:1Br)C1:C(Br):C(Br):C(C2=CC3(C=C(C4:C(Br):C(Br):C(:C(Br):C:4Br)C4:C(Br):C(Br):C(C(:O):O):C(Br):C:4Br)C2C(=C3)C2:C(Br):C(Br):C(:C(Br):C:2Br)C2:C(Br):C(Br):C(C(:O):O):C(Br):C:2Br)C2:C(Br):C(Br):C(:C(Br):C:2Br)C2:C(Br):C(Br):C(C(:O):O):C(Br):C:2Br):C(Br):C:1Br,1
SR_cdme_v1-4c_porphyrin_Ch_v2-4c_Cu_1_Ch_v3-4c_1anC_Ch_v4-4c_B_Ch_1B_2SH_Ch_2x2x1,0.18088,0.7678,0.534281,3686.61,1969.69,11.67769,8.49415,68612.69416,,,,1944,,72,64,64,C129Cu2H72N8O8S24,0.008298755,4,4c_Cu_1_Ch,,None,1
SR_cdj_v1-3c_B_Ch_v2-6c_CdZn_1_Ch_1B_4CN_Ch_ntn_edge_1x1x1,0.11526,0.74478,0.652563,3245.73,2118.04,13.02852,6.59857,39997.68815,,,,1072,,128,128,96,C84Cd3H9N24O13Zn1,0.030769231,6,6c_CdZn_1_Ch,86,N#CC1:C(C#N):C(C2:C:C(:C:C(:C:2)C2:C(C#N):C(C#N):C(C(:O):O):C(C#N):C:2C#N)C2:C:C(:C:C(:C:2)C2:C(C#N):C(C#N):C(C(:O):O):C(C#N):C:2C#N)C2:C(C#N):C(C#N):C(C(:O):O):C(C#N):C:2C#N):C(C#N):C(C#N):C:1C(:O):O,1
SR_csq_v1-4c_ethene_Ch_v2-8c_Co_1_Ch_1B_4H_Ch_1x1x2,0.32115,0.711,0.708817,1988.74,1409.65,18.64069,16.6025,20375.44139,,,,678,,120,120,96,C60Co4H32O17,0.036697248,8,8c_Co_1_Ch,54,O:C(:O)C1:C:C:C(:C:C:1)C(=C(C1:C:C:C(:C:C:1)C(:O):O)C1:C:C:C(:C:C:1)C(:O):O)C1:C:C:C(:C:C:1)C(:O):O,1
SR_ces_v1-4c_B_Ch_v2-6c_bicyclooctane_Ch_v3-4c_V_1_Ch_2B_fused_Ch_ntn_edge_2x2x1,0.78606,0.32984,1.49787,0,0,7.15791,1.39863,15389.88227,,,,1208,,108,96,96,C92H44O12V3,0.02027027,4,4c_V_1_Ch,,None,1
SR_cdj_v1-3c_triazine_Ch_v2-6c_CdZn_1_Ch_1B_4F_Ch_ntn_edge_1x1x1,0.14276,0.80418,0.619718,3307.69,2049.83,16.55035,8.81481,38696.86321,,,,808,,128,128,96,C51Cd3F24N9O13Zn1,0.041237113,6,6c_CdZn_1_Ch,64,O:C(:O)C1:C(F):C(F):C(C2:N:C(:N:C(:N:2)C2:C(F):C(F):C(C(:O):O):C(F):C:2F)C2:N:C(:N:C(:N:2)C2:C(F):C(F):C(C(:O):O):C(F):C:2F)C2:C(F):C(F):C(C(:O):O):C(F):C:2F):C(F):C:1F,1
SR_cdn_v1-4c_V_1_Ch_v2-4c_V_1_Ch_ntn_edge_1DoU_Ch_2x2x1,13.25005,0.55582,1.46796,0,0,5.92484,3.38171,42125.74191,,,,2048,,1152,1024,1024,C5H1O8V2,0.142857143,4,4c_V_1_Ch,"6,10",O:C(:O)C(:O):O___O:C(:O)C=CC(:O):O,1
SR_buh_v1-4c_bicyclooctane_Ch_v2-12c_Eu_1_Ch_v3-12c_Eu_1_Ch_1B_2Br_Ch_1x1x1,0.12068,0.5931,1.51321,782.296,1183.78,9.1896,3.79056,41112.84132,,,,1680,,384,384,192,Br12C54Eu3H20O16,0.029411765,12,12c_Eu_1_Ch,64,O:C(:O)C1:C:C(Br):C(:C:C:1Br)C1=CC2(C=C(C3:C:C(Br):C(:C:C:3Br)C(:O):O)C1C(=C2)C1:C:C(Br):C(:C:C:1Br)C(:O):O)C1:C:C(Br):C(:C:C:1Br)C(:O):O,1
SR_cen_v1-12c_Eu_1_Ch_v2-4c_1anC_Ch_1TrU_Ch_2x2x2,0.68328,0.5144,1.78204,0,0,4.10638,3.48654,17211.47068,,,,688,,384,384,192,C22Eu3H2O16,0.075,12,12c_Eu_1_Ch,34,O:C(:O)C#CC(C#CC(:O):O)(C#CC(:O):O)C#CC(C#CC(:O):O)(C#CC(:O):O)C#CC(:O):O,1
SR_crsd_v1-8c_Co_1_Ch_v2-4c_1anC_Ch_2TrU_Ch_1TrU_Ch_1x1x1,0.34932,0.69464,0.856487,2716.53,2326.68,6.62412,5.53101,13278.03119,,,,400,,160,160,128,C29Co4O17,0.086956522,8,8c_Co_1_Ch,"29,8",O:C(:O)C#CC#CC(C#CC#CC(:O):O)(C#CC#CC(:O):O)C#CC#CC(:O):O___O:C(:O)C#CC(:O):O,1
SR_cer_v1-3c_triazine_Ch_v2-6c_bicyclooctane_Ch_v3-6c_CdZn_1_Ch_2B_2CF3_Ch_ntn_edge_2x2x1,0.11267,0.6879,0.958015,2078.71,1991.43,9.41662,5.59859,72480.48487,,,,2272,,256,256,192,C67Cd3F36H13N9O13Zn1,0.028985507,6,6c_CdZn_1_Ch,274,O:C(:O)C1:N:C(:N:C(:N:1)C1:C:C(:C(:C:C:1C(F)(F)F)C1:C:C(:C(:C:C:1C(F)(F)F)C1=C(C2:C:C(:C(:C:C:2C(F)(F)F)C2:C:C(:C(:C:C:2C(F)(F)F)C2:N:C(:N:C(:N:2)C(:O):O)C(:O):O)C(F)(F)F)C(F)(F)F)C2C(=C(C3:C:C(:C(:C:C:3C(F)(F)F)C3:C:C(:C(:C:C:3C(F)(F)F)C3:N:C(:N:C(:N:3)C(:O):O)C(:O):O)C(F)(F)F)C(F)(F)F)C1C(=C2C1:C:C(:C(:C:C:1C(F)(F)F)C1:C:C(:C(:C:C:1C(F)(F)F)C1:N:C(:N:C(:N:1)C(:O):O)C(:O):O)C(F)(F)F)C(F)(F)F)C1:C:C(:C(:C:C:1C(F)(F)F)C1:C:C(:C(:C:C:1C(F)(F)F)C1:N:C(:N:C(:N:1)C(:O):O)C(:O):O)C(F)(F)F)C(F)(F)F)C1:C:C(:C(:C:C:1C(F)(F)F)C1:C:C(:C(:C:C:1C(F)(F)F)C1:N:C(:N:C(:N:1)C(:O):O)C(:O):O)C(F)(F)F)C(F)(F)F)C(F)(F)F)C(F)(F)F)C(:O):O,1
SR_epo_v1-3c_pyrrole_Ch_v2-6c_Ni_1_Ch_v3-4c_Ni_1_Ch_2B_2CH3_Ch_1x1x1,0.05192,0.90232,0.20245,5619.01,1137.57,33.65073,22.40398,185178.8633,,,,2764,,198,192,144,C330H304N6Ni11O40,0.016176471,"4,6","4c_Ni_1_Ch,6c_Ni_1_Ch",112,CC1:C:C(:C(C):C:C:1C(:O):O)C1:C:C(C):C(:C:C:1C)C1:C:C:C(C2:C:C(C):C(:C:C:2C)C2:C:C(C):C(:C:C:2C)C(:O):O):N:1C1:C:C(C):C(:C:C:1C)C1:C:C(C):C(:C:C:1C)C(:O):O,1
SR_dpd_v1-4c_bicyclooctane_Ch_v2-4c_Cu_1_Ch_v3-4c_1anC_Ch_ntn_edge_1B_2indole_Ch_1x1x1,0.15681,0.85388,0.384599,3566.99,1371.86,25.18138,11.92344,66959.76367,,,,1304,,216,192,192,C85Cu6H40N8O24,0.038216561,4,4c_Cu_1_Ch,157,O:C(:O)C1=CC2(C=C(C(:O):O)C1C(=C2)C(:O):O)C1:C:C2:C:C3:[NH]:C(:C:C:3:C:C:2:[NH]:1)C(C1:C:C2:C:C3:[NH]:C(:C:C:3:C:C:2:[NH]:1)C12C=C(C(:O):O)C(C(=C1)C(:O):O)C(=C2)C(:O):O)(C1:C:C2:C:C3:[NH]:C(:C:C:3:C:C:2:[NH]:1)C12C=C(C(:O):O)C(C(=C1)C(:O):O)C(=C2)C(:O):O)C1:C:C2:C:C3:[NH]:C(:C:C:3:C:C:2:[NH]:1)C12C=C(C(:O):O)C(C(=C1)C(:O):O)C(=C2)C(:O):O,1
SR_epp_v1-4c_ethene_Ch_v2-3c_B_Ch_v3-6c_Mg_1_Ch_1B_2NO2_Ch_ntn_edge_1x1x1,0.17269,0.84092,0.368305,3572.18,1315.65,32.63548,16.0782,115267.2669,,,,2208,,240,240,96,C21H8Mg1N4O12,0.022222222,6,6c_Mg_1_Ch,,None,1
SR_edq_v1-3c_B_Ch_v2-6c_Fe_1_Ch_1B_2NO2_Ch_1x1x1,0.26671,0.78164,0.529826,3843.86,2036.58,14.44585,8.28875,48104.13514,,,,1232,,120,120,96,C69Fe3H24N15O43,0.01986755,6,6c_Fe_1_Ch,100,O:C(:O)C1:C:C(:C(:C:C:1N(:O):O)C1:C:C(:C:C(:C:1)C1:C:C(:C(:C:C:1N(:O):O)C1:C:C(:C:C(:C:1)C1:C:C(:C(:C:C:1N(:O):O)C(:O):O)N(:O):O)C1:C:C(:C(:C:C:1N(:O):O)C(:O):O)N(:O):O)N(:O):O)C1:C:C(:C(:C:C:1N(:O):O)C(:O):O)N(:O):O)N(:O):O,1