name,k,VF,density,ASA_grav,ASA_vol,LPD,PLD,volume,,,,N_atoms,,N_metal_containing_bonds,N_metal_nonmetal_bonds,N_metal_linker_bonds,formula,metal_nonmetal_ratio,metal_node_connectivity,metal_node_name,N_atoms_per_linker,linker_SMILES,N_ccs
SR_fsm_v1-6c_Ni_1_Ch_v2-4c_1anC_Ch_v3-4c_1anC_Ch_1B_2thiophene_Ch_1x1x1,0.1268,0.84252,0.405467,4404.4,1785.84,16.78066,12.52391,30721.62935,,,,560,,72,72,48,C39H15Ni2O7S7,0.029411765,6,6c_Ni_1_Ch,132,O:C(:O)C1:C:C2:C:C3:S:C(:C:C:3:C:C:2:S:1)C(C1:C:C2:C:C3:S:C(:C:C:3:C:C:2:S:1)C(:O):O)(C1:C:C2:C:C3:S:C(:C:C:3:C:C:2:S:1)C(:O):O)C1:C:C2:C:C3:S:C(:C:C:3:C:C:2:S:1)C(C1:C:C2:C:C3:S:C(:C:C:3:C:C:2:S:1)C(:O):O)(C1:C:C2:C:C3:S:C(:C:C:3:C:C:2:S:1)C(:O):O)C1:C:C2:C:C3:S:C(:C:C:3:C:C:2:S:1)C(:O):O,1
SR_fuf_v1-4c_Cd_1_Ch_v2-4c_Cd_1_Ch_1TrU_Ch_1B_4H_Ch_1DoU_Ch_1x1x1,0.04146,0.93164,0.202027,4775.27,964.732,43.14136,29.25004,143428.3162,,,,1056,,384,384,384,C10Cd1H3O8,0.047619048,4,4c_Cd_1_Ch,"8,16,10",O:C(:O)C#CC(:O):O___O:C(:O)C1:C:C:C(:C:C:1)C(:O):O___O:C(:O)C=CC(:O):O,1
SR_jaj_v1-3c_Cu_imadazoline_Ch_v2-4c_1anC_Ch_v3-4c_Cu_1_Ch_ntn_edge_1DoU_Ch_2x2x1,0.18342,0.84688,0.515675,3926.28,2024.68,14.87386,9.68413,51180.44006,,,,1024,,264,256,256,C25Cu7H16N12O4,0.122807018,"3,4","3c_Cu_imadazoline_Ch,4c_Cu_1_Ch","29,14",C1:N:N:C:C:1C(C1:C:N:N:C:1)(C1:C:N:N:C:1)C1:C:N:N:C:1___O:C(:O)C=CC1:C:N:N:C:1,1
SR_kag_v1-6c_Zr_1_Ch_1B_2CF3_Ch_1x1x1,0.0792,0.75276,0.750138,2061.79,1546.63,18.50953,16.34272,29174.23109,,,,684,,288,288,72,C15F9H14O16Zr3,0.055555556,6,6c_Zr_1_Ch,22,O:C(:O)C1:C:C(:C(:C:C:1C(F)(F)F)C(:O):O)C(F)(F)F,1
SR_fto_v1-4c_1anC_Ch_v2-4c_In_1_Ch_ntn_edge_2B_2NH2_Ch_1x1x1,0.14941,0.63936,0.788009,1589.87,1252.83,16.64973,4.29783,20388.5761,,,,1110,,48,48,48,C80H72In1N24O8,0.005434783,4,4c_In_1_Ch,184,NC1:C:C2:C(N):C:C:1C1:C:C(N):C(:C:C:1N)C1(C(:O):O)C3:C:C(N):C(:C:C:3N)C3:C:C(N):C(:C:C:3N)C3(C(:O):O)C4:C:C(N):C(:C:C:4N)C4:C:C(N):C(:C:C:4N)C2(C(:O):O)C2:C:C(N):C(:C:C:2N)C2:C:C(N):C(:C:C:2N)C(C(:O):O)(C2:C:C(N):C(:C:C:2N)C2:C:C(N):C1:C:C:2N)C1:C:C(N):C(:C:C:1N)C1:C:C(N):C3:C:C:1N,1
SR_flue_v1-6c_Cr_1_Ch_1B_2NO2_Ch_1x1x1,0.36749,0.73026,0.735282,2182.44,1604.71,20.80172,5.59526,67521.1206,,,,2048,,480,480,384,C24Cr3H6N6O25,0.049180328,6,6c_Cr_1_Ch,20,O:C(:O)C1:C:C(:C(:C:C:1N(:O):O)C(:O):O)N(:O):O,1
SR_idp_v1-4c_porphyrin_Ch_v2-3c_triazine_Ch_v3-6c_CdZn_1_Ch_1B_2CN_Ch_1x1x1,0.08859,0.82364,0.449761,4474.37,2012.4,21.93153,8.30422,67394.48315,,,,1396,,128,128,96,C204Cd6H51N60O26Zn2,0.023460411,6,6c_CdZn_1_Ch,226,N#CC1:C:C(C2:N:C(:N:C(:N:2)C2:C:C(C#N):C(:C:C:2C#N)C2:C3:C:C:C(:N:3):C(C3:C:C(C#N):C(:C:C:3C#N)C3:N:C(:N:C(:N:3)C3:C:C(C#N):C(:C:C:3C#N)C(:O):O)C3:C:C(C#N):C(:C:C:3C#N)C(:O):O):C3:C:C:C(:[NH]:3):C(C3:C:C(C#N):C(:C:C:3C#N)C3:N:C(:N:C(:N:3)C3:C:C(C#N):C(:C:C:3C#N)C(:O):O)C3:C:C(C#N):C(:C:C:3C#N)C(:O):O):C3:C:C:C(:N:3):C(C3:C:C(C#N):C(:C:C:3C#N)C3:N:C(:N:C(:N:3)C3:C:C(C#N):C(:C:C:3C#N)C(:O):O)C3:C:C(C#N):C(:C:C:3C#N)C(:O):O):C3:C:C:C:2:[NH]:3)C2:C:C(C#N):C(:C:C:2C#N)C(:O):O):C(C#N):C:C:1C(:O):O,1
SR_fof_v1-3c_Cu_imadazoline_Ch_v2-4c_Cu_1_Ch_2B_2Br_Ch_ntn_edge_2x2x1,0.13275,0.8972,0.358566,4370.02,1566.94,23.25493,13.0953,308888.313,,,,2952,,756,720,720,Br2C17Cu4H8N6O4,0.108108108,"3,4","3c_Cu_imadazoline_Ch,4c_Cu_1_Ch","34,10",BrC1:C:C(:C(Br):C:C:1C1:C:N:N:C:1)C1:C:C(Br):C(:C:C:1Br)C1:C:N:N:C:1___O:C(:O)C1:C:N:N:C:1,1
SR_hwx_v1-6c_Fe_1_Ch_v2-3c_triazine_Ch_1B_4Br_Ch_1x1x2,0.19597,0.72084,1.15948,1726.54,2001.9,10.30275,7.46981,33849.10632,,,,752,,120,120,96,Br24C48Fe3N6O13,0.032967033,6,6c_Fe_1_Ch,45,O:C(:O)C1:C(Br):C(Br):C(C2:N:C(:N:C(:N:2)C2:C(Br):C(Br):C(C(:O):O):C(Br):C:2Br)C2:C(Br):C(Br):C(C(:O):O):C(Br):C:2Br):C(Br):C:1Br,1
SR_hyx_v1-3c_triazine_Ch_v2-4c_V_1_Ch_v3-4c_B_Ch_1B_2CF3_Ch_ntn_edge_2x2x1,0.22056,0.71594,0.764302,2517.93,1924.46,12.56417,6.17321,67330.84825,,,,2272,,144,128,128,C35F18H7N6O4V1,0.014285714,4,4c_V_1_Ch,,None,1
SR_fsi_v1-4c_bicyclooctane_Ch_v2-4c_bicyclooctane_Ch_v3-6c_Fe_1_Ch_4B_fused_8H_Ch_1x1x1,0.13106,0.86726,0.291629,5345.79,1558.99,20.03637,17.05508,81979.52325,,,,1472,,120,120,96,C114Fe3H54O13,0.016574586,6,6c_Fe_1_Ch,120,O:C(:O)C1:C:C2:C:C:C3:C:C(:C:C4:C:C:C(:C:1):C:2:C:3:4)C1=CC2(C=C(C3:C:C4:C:C:C5:C:C(:C:C6:C:C:C(:C:3):C:4:C:5:6)C(:O):O)C1C(=C2)C1:C:C2:C:C:C3:C:C(:C:C4:C:C:C(:C:1):C:2:C:3:4)C(:O):O)C1:C:C2:C:C:C3:C:C(:C:C4:C:C:C(:C:1):C:2:C:3:4)C(:O):O,1
SR_jjt_v1-6c_Fe_1_Ch_v2-3c_B_Ch_v3-3c_B_Ch_ntn_edge_1B_4CN_Ch_2x2x2,0.58998,0.44846,1.30277,0,0,5.00675,2.52276,29771.18096,,,,1600,,240,240,192,C60Fe3H12N12O13,0.030927835,6,6c_Fe_1_Ch,96,N#CC1:C(C#N):C(C2:C:C(:C:C(:C:2)C2:C(C#N):C(C#N):C(C3:C:C(:C:C(:C:3)C(:O):O)C(:O):O):C(C#N):C:2C#N)C2:C(C#N):C(C#N):C(C3:C:C(:C:C(:C:3)C(:O):O)C(:O):O):C(C#N):C:2C#N):C(C#N):C(C#N):C:1C1:C:C(:C:C(:C:1)C(:O):O)C(:O):O,1
SR_ftw_v1-4c_porphyrin_Ch_v2-12c_Zr_1_Ch_1B_2CH3_Ch_2x2x2,0.20583,0.68224,0.72225,2302.19,1662.75,14.58939,4.33507,62100.54328,,,,2784,,384,384,192,C84H65N6O16Zr3,0.01754386,12,12c_Zr_1_Ch,110,CC1:C:C(:C(C):C:C:1C(:O):O)C1:C2:C:C:C(:N:2):C(C2:C:C(C):C(:C:C:2C)C(:O):O):C2:C:C:C(:[NH]:2):C(C2:C:C(C):C(:C:C:2C)C(:O):O):C2:C:C:C(:N:2):C(C2:C:C(C):C(:C:C:2C)C(:O):O):C2:C:C:C:1:[NH]:2,1
SR_fsk_v1-6c_CdZn_1_Ch_v2-4c_bicyclooctane_Ch_v3-4c_bicyclooctane_Ch_1DoU_Ch_2TrU_Ch_ntn_edge_1x2x2,0.1752,0.73082,0.877042,2445.8,2145.07,9.47758,6.77493,30573.26941,,,,1008,,256,256,192,C32Cd3H14O13Zn1,0.06779661,6,6c_CdZn_1_Ch,58,O:C(:O)C=CC1=CC2(C=CC(:O):O)C=C(C#CC#CC34C=C(C(:O):O)C(C(=C3)C(:O):O)C(=C4)C(:O):O)C1C(C=CC(:O):O)=C2,1
SR_fff_v1-4c_1anC_Ch_v2-4c_1anC_Ch_v3-4c_V_1_Ch_1B_2NH2_Ch_1x1x1,0.1366,0.78002,0.504006,2989.07,1506.51,21.93981,9.67275,68315.02136,,,,2168,,216,192,192,C113H96N32O24V6,0.022641509,4,4c_V_1_Ch,265,NC1:C:C(:C(N):C:C:1C(:O):O)C(C1:C:C(N):C(:C:C:1N)C(:O):O)(C1:C:C(N):C(:C:C:1N)C(:O):O)C1:C:C(N):C(:C:C:1N)C(C1:C:C(N):C(:C:C:1N)C(C1:C:C(N):C(:C:C:1N)C(:O):O)(C1:C:C(N):C(:C:C:1N)C(:O):O)C1:C:C(N):C(:C:C:1N)C(:O):O)(C1:C:C(N):C(:C:C:1N)C(C1:C:C(N):C(:C:C:1N)C(:O):O)(C1:C:C(N):C(:C:C:1N)C(:O):O)C1:C:C(N):C(:C:C:1N)C(:O):O)C1:C:C(N):C(:C:C:1N)C(C1:C:C(N):C(:C:C:1N)C(:O):O)(C1:C:C(N):C(:C:C:1N)C(:O):O)C1:C:C(N):C(:C:C:1N)C(:O):O,1
SR_hyx_v1-3c_Cu_imadazoline_Ch_v2-4c_Cu_1_Ch_v3-4c_B_Ch_2B_2CH3_Ch_1x1x1,0.06219,0.95166,0.107768,6687.55,720.705,44.67373,25.09435,247494.0911,,,,1752,,132,128,128,C103Cu7H93N12O4,0.033018868,"3,4","3c_Cu_imadazoline_Ch,4c_Cu_1_Ch","42,164,46",CC1:C:C(:C(C):C:C:1C(:O):O)C1:C:C(C):C(:C:C:1C)C1:C:N:N:C:1___CC1:C:C(:C(C):C:C:1C1:C:N:N:C:1)C1:C:C(C):C(:C:C:1C)C1:C:C(C2:C:C(C):C(:C:C:2C)C2:C:C(C):C(:C:C:2C)C2:C:N:N:C:2):C(:C:C:1C1:C:C(C):C(:C:C:1C)C1:C:C(C):C(:C:C:1C)C1:C:N:N:C:1)C1:C:C(C):C(:C:C:1C)C1:C:C(C):C(:C:C:1C)C1:C:N:N:C:1___CC1:C:C(:C(C):C:C:1C1:C:N:N:C:1)C1:C:C(C):C(:C:C:1C)C1:C:N:N:C:1,1
SR_koh_v1-6c_Zn_1_Ch_v2-6c_Zn_1_Ch_v3-3c_triazine_Ch_1TrU_Ch_1DoU_Ch_1x1x1,0.09679,0.84188,0.497685,3801.19,1891.8,21.76256,8.82062,50574.02642,,,,940,,320,320,240,C96H36N18O65Zn20,0.093023256,6,6c_Zn_1_Ch,"8,27",O:C(:O)C#CC(:O):O___O:C(:O)C=CC1:N:C(C=CC(:O):O):N:C(C=CC(:O):O):N:1,1
SR_fof_v1-3c_triazine_Ch_v2-4c_V_1_Ch_ntn_edge_4B_fused_8H_Ch_2x2x1,1.09328,0.75554,0.624126,3818.84,2383.44,10.91572,6.38815,70176.15696,,,,1800,,324,288,288,C13H4N3O4V1,0.041666667,4,4c_V_1_Ch,48,O:C(:O)C1:N:C(:N:C(:N:1)C1:C:C2:C:C:C3:C:C(:C:C4:C:C:C(:C:1):C:2:C:3:4)C1:N:C(:N:C(:N:1)C(:O):O)C(:O):O)C(:O):O,1
SR_etg_v1-3c_Cu_imadazoline_Ch_v2-3c_Cu_imadazoline_Ch_1B_2NH2_Ch_ntn_edge_1x1x1,0.0411,0.96574,0.102969,6002.35,618.055,38.14861,33.728,127711.3536,,,,608,,96,96,96,C15Cu3H12N8,0.085714286,3,3c_Cu_imadazoline_Ch,"14,28",C1:N:N:C:C:1C1:C:N:N:C:1___NC1:C:C(C2:C:N:N:C:2):C(N):C:C:1C1:C:N:N:C:1,1
SR_kfi_v1-4c_In_1_Ch_1B_4F_Ch_1x1x1,0.0777,0.89628,0.328663,4076.56,1339.81,41.40806,19.42998,284704.3601,,,,3168,,768,768,768,C16F8In1O8,0.03125,4,4c_In_1_Ch,16,O:C(:O)C1:C(F):C(F):C(C(:O):O):C(F):C:1F,1
SR_gwe_v1-3c_B_Ch_v2-4c_Ni_1_Ch_v3-3c_B_Ch_v4-3c_B_Ch_v5-4c_Ni_1_Ch_1B_4Br_Ch_ntn_edge_1x1x1,0.2056,0.7896,0.830581,2159,1793.23,18.54419,16.43807,99192.91779,,,,1524,,162,144,144,Br28C72H12Ni3O12,0.024193548,4,4c_Ni_1_Ch,124,O:C(:O)C1:C:C(:C:C(:C:1)C1:C(Br):C(Br):C(C2:C:C(:C:C(:C:2)C2:C(Br):C(Br):C(C3:C:C(:C:C(:C:3)C3:C(Br):C(Br):C(C(:O):O):C(Br):C:3Br)C3:C(Br):C(Br):C(C(:O):O):C(Br):C:3Br):C(Br):C:2Br)C2:C(Br):C(Br):C(C3:C:C(:C:C(:C:3)C3:C(Br):C(Br):C(C(:O):O):C(Br):C:3Br)C(:O):O):C(Br):C:2Br):C(Br):C:1Br)C1:C(Br):C(Br):C(C(:O):O):C(Br):C:1Br,1
SR_gme_v1-4c_In_1_Ch_1B_2NO2_Ch_1x1x1,0.06353,0.85548,0.413162,4117.57,1701.23,20.13431,18.49458,70934.2762,,,,984,,192,192,192,C16H4In1N4O16,0.025,4,4c_In_1_Ch,20,O:C(:O)C1:C:C(:C(:C:C:1N(:O):O)C(:O):O)N(:O):O,1
SR_fjh_v1-3c_triazine_Ch_v2-4c_Cu_1_Ch_v3-4c_porphyrin_Ch_2B_2NO2_Ch_1x1x1,0.10398,0.8965,0.244917,5512.91,1350.2,22.32447,16.55201,141409.6233,,,,1768,,36,32,32,C100Cu1H34N34O52,0.004545455,4,4c_Cu_1_Ch,,None,1
SR_fjh_v1-3c_triazine_Ch_v2-4c_V_1_Ch_v3-4c_V_1_Ch_ntn_edge_2B_fused_Ch_1x1x2,0.58913,0.76224,0.616266,2612.19,1609.8,13.93316,12.51022,35581.93097,,,,1040,,216,192,192,C32H12N6O12V3,0.048387097,4,4c_V_1_Ch,31,O:C(:O)C1:C:C:C2:C:C(:C:C:C:2:C:1)C1:N:C(:N:C(:N:1)C(:O):O)C(:O):O,1
SR_lcx_v1-8c_Zr_1_Ch_1B_4F_Ch_2x2x2,0.18162,0.56512,1.37705,106.848,147.135,12.68876,3.53989,102251.0904,,,,4896,,2304,2304,768,C16F8H8O16Zr3,0.0625,8,8c_Zr_1_Ch,16,O:C(:O)C1:C(F):C(F):C(C(:O):O):C(F):C:1F,1
SR_hbm_v1-4c_1anC_Ch_v2-4c_Cu_1_Ch_ntn_edge_1B_2Br_Ch_2x2x2,0.34903,0.35954,2.41163,218.632,527.26,6.94163,5.96117,27824.66103,,,,1792,,288,256,256,Br4C15Cu1H4O4,0.037037037,4,4c_Cu_1_Ch,216,O:C(:O)C1:C:C(Br):C(:C:C:1Br)C1(C2:C:C(Br):C(:C:C:2Br)C(:O):O)C(C2:C:C(Br):C(:C:C:2Br)C(:O):O)(C2:C:C(Br):C(:C:C:2Br)C(:O):O)C(C2:C:C(Br):C(:C:C:2Br)C(:O):O)(C2:C:C(Br):C(:C:C:2Br)C(:O):O)C(C2:C:C(Br):C(:C:C:2Br)C(:O):O)(C2:C:C(Br):C(:C:C:2Br)C(:O):O)C(C2:C:C(Br):C(:C:C:2Br)C(:O):O)(C2:C:C(Br):C(:C:C:2Br)C(:O):O)C(C2:C:C(Br):C(:C:C:2Br)C(:O):O)(C2:C:C(Br):C(:C:C:2Br)C(:O):O)C(C2:C:C(Br):C(:C:C:2Br)C(:O):O)(C2:C:C(Br):C(:C:C:2Br)C(:O):O)C1(C1:C:C(Br):C(:C:C:1Br)C(:O):O)C1:C:C(Br):C(:C:C:1Br)C(:O):O,1
SR_hcpd_v1-8c_Mn_1_Ch_v2-4c_1anC_Ch_ntn_edge_1B_2CF3_Ch_2x2x2,0.1639,0.6098,1.07201,1280.92,1373.16,8.77865,4.23676,65939.85926,,,,2544,,320,320,256,C66Cl1F42H14Mn4N32,0.025806452,8,8c_Mn_1_Ch,"144,10",FC(F)(F)C1:C:C(:C(:C:C:1C1:N:N:N:N:1)C(F)(F)F)C(C1:C:C(:C(:C:C:1C(F)(F)F)C1:N:N:N:N:1)C(F)(F)F)(C1:C:C(:C(:C:C:1C(F)(F)F)C1:N:N:N:N:1)C(F)(F)F)C1:C:C(:C(:C:C:1C(F)(F)F)C(C1:C:C(:C(:C:C:1C(F)(F)F)C1:N:N:N:N:1)C(F)(F)F)(C1:C:C(:C(:C:C:1C(F)(F)F)C1:N:N:N:N:1)C(F)(F)F)C1:C:C(:C(:C:C:1C(F)(F)F)C1:N:N:N:N:1)C(F)(F)F)C(F)(F)F___N1:N:N:C(:N:1)C1:N:N:N:N:1,1
SR_kxe_v1-3c_B_Ch_v2-12c_Eu_1_Ch_1B_2CF3_Ch_1x1x1,0.11024,0.665,0.997858,1717.58,1713.9,11.50029,5.10755,60472.69209,,,,2088,,288,288,144,C84Eu3F45H26O16,0.01754386,12,12c_Eu_1_Ch,110,O:C(:O)C1:C:C(:C(:C:C:1C(F)(F)F)C1:C:C(:C:C(:C:1)C1:C:C(:C(:C:C:1C(F)(F)F)C1:C:C(:C:C(:C:1)C1:C:C(:C(:C:C:1C(F)(F)F)C(:O):O)C(F)(F)F)C1:C:C(:C(:C:C:1C(F)(F)F)C(:O):O)C(F)(F)F)C(F)(F)F)C1:C:C(:C(:C:C:1C(F)(F)F)C(:O):O)C(F)(F)F)C(F)(F)F,1
SR_hbr_v1-8c_Zr_1_Ch_v2-8c_Zr_1_Ch_2B_4H_Ch_1x1x1,0.10301,0.84876,0.394209,3565.84,1405.69,34.9398,23.9081,77997.57694,,,,1278,,432,432,144,C28H24O16Zr3,0.044117647,8,8c_Zr_1_Ch,26,O:C(:O)C1:C:C:C(:C:C:1)C1:C:C:C(:C:C:1)C(:O):O,1
SR_kez_v1-6c_bicyclooctane_Ch_v2-3c_B_Ch_v3-6c_Mg_1_Ch_ntn_edge_2B_4H_Ch_1x1x1,0.32192,0.75496,0.484712,4646.1,2252.02,9.54042,6.84764,24936.93441,,,,724,,60,60,24,C104H62Mg3O12,0.016853933,6,6c_Mg_1_Ch,332,O:C(:O)C1:C:C2:C:C(:C:1)C1:C:C:C(:C:C:1)C1:C:C:C(:C:C:1)C1=C3C4:C:C:C(:C:C:4)C4:C:C:C(:C:C:4)C4:C:C(:C:C(:C:4)C4:C:C:C(:C:C:4)C4:C:C:C(:C:C:4)C4=C(C5:C:C:C(:C:C:5)C5:C:C:C2:C:C:5)C2C5=C6C7:C:C:C(:C:C:7)C7:C:C:C(:C:C:7)C7:C:C(:C:C(:C:7)C7:C:C:C(:C:C:7)C7:C:C:C(:C:C:7)C7=C(C8:C:C:C(:C:C:8)C8:C:C:C(:C:C:8)C8:C:C(:C:C(:C:8)C8:C:C:C(:C:C:8)C8:C:C:C5:C:C:8)C(:O):O)C1C1=C(C5:C:C:C(:C:C:5)C5:C:C:C(:C:C:5)C5:C:C(:C:C(:C:5)C5:C:C:C(:C:C:5)C5:C:C:C(:C:C:5)C(=C2C2:C:C:C(:C:C:2)C2:C:C:C(:C:C:2)C2:C:C(:C:C(:C:2)C2:C:C:C(:C:C:2)C2:C:C:C1:C:C:2)C(:O):O)C46)C(:O):O)C37)C(:O):O)C(:O):O,1
SR_ith_v1-4c_bicyclooctane_Ch_v2-12c_Eu_1_Ch_1B_2F_Ch_2x2x2,0.13788,0.62478,1.13192,1428.43,1616.87,7.77091,4.41995,75597.90581,,,,3360,,768,768,384,C54Eu3F12H20O16,0.029411765,12,12c_Eu_1_Ch,64,O:C(:O)C1:C:C(F):C(:C:C:1F)C1=CC2(C=C(C3:C:C(F):C(:C:C:3F)C(:O):O)C1C(=C2)C1:C:C(F):C(:C:C:1F)C(:O):O)C1:C:C(F):C(:C:C:1F)C(:O):O,1
SR_ibe_v1-6c_Mg_1_Ch_v2-3c_triazine_Ch_3B_fused_8H_Ch_1x1x1,0.15816,0.91662,0.179385,6338.16,1136.97,26.11607,18.17447,331159.5896,,,,3696,,480,480,192,C42H22Mg2N3O8,0.026666667,6,6c_Mg_1_Ch,134,O:C(:O)C1:C:C:C2:C(:C:C:C3:C:C(:C:C:C:3:2)C2:N:C(:N:C(:N:2)C2:C:C:C3:C(:C:C:C4:C:C(:C:C:C:4:3)C3:N:C(:N:C(:N:3)C3:C:C:C4:C(:C:C:C5:C:C(:C:C:C:5:4)C(:O):O):C:3)C3:C:C:C4:C(:C:C:C5:C:C(:C:C:C:5:4)C(:O):O):C:3):C:2)C2:C:C:C3:C(:C:C:C4:C:C(:C:C:C:4:3)C(:O):O):C:2):C:1,1
SR_lcye_v1-6c_Zr_1_Ch_1TrU_Ch_1x1x1,0.11786,0.76616,0.749599,2561.16,1919.84,14.30431,11.30669,32580.46211,,,,864,,576,576,144,C6H11O16Zr3,0.090909091,6,6c_Zr_1_Ch,8,O:C(:O)C#CC(:O):O,1
SR_fof_v1-3c_triazine_Ch_v2-4c_Cu_1_Ch_1B_2indole_Ch_ntn_edge_1x1x1,0.42577,0.90288,0.233729,6001.55,1402.73,24.61803,15.95767,78908.76811,,,,882,,81,72,72,C25Cu1H12N7O4,0.020833333,4,4c_Cu_1_Ch,96,O:C(:O)C1:C:C2:C:C3:[NH]:C(:C:C:3:C:C:2:[NH]:1)C1:N:C(:N:C(:N:1)C1:C:C2:C:C3:[NH]:C(:C:C:3:C:C:2:[NH]:1)C(:O):O)C1:N:C(:N:C(:N:1)C1:C:C2:C:C3:[NH]:C(:C:C:3:C:C:2:[NH]:1)C(:O):O)C1:C:C2:C:C3:[NH]:C(:C:C:3:C:C:2:[NH]:1)C(:O):O,1
SR_jea_v1-4c_bicyclooctane_Ch_v2-3c_Cu_imadazoline_Ch_1B_2Br_Ch_ntn_edge_1x2x2,0.18136,0.84182,0.501164,3716.18,1862.41,15.00975,11.77229,32123.1564,,,,656,,96,96,96,Br1C20Cu3H11N6,0.078947368,3,3c_Cu_imadazoline_Ch,76,BrC1:C:C(:C(Br):C:C:1C12C=C(C3:C:N:N:C:3)C(C(=C1)C1:C:N:N:C:1)C(=C2)C1:C:N:N:C:1)C12C=C(C3:C:N:N:C:3)C(C(=C1)C1:C:N:N:C:1)C(=C2)C1:C:N:N:C:1,1
SR_fla_v1-8c_Mn_1_Ch_v2-4c_bicyclooctane_Ch_1B_2CF3_Ch_1x1x1,0.07718,0.76982,0.597939,2952.64,1765.5,20.2464,6.84861,64900.42148,,,,1844,,80,80,64,C232Cl1F120H72Mn4N32,0.008752735,8,8c_Mn_1_Ch,228,FC(F)(F)C1:C:C2C3=CC4(C=C5C6:C:C(:C(:C:C:6C(F)(F)F)C6=CC7(C=C8C9:C:C(:C(:C:C:9C(F)(F)F)C9=CC%10(C=C(C:1:C:C:2C(F)(F)F)C9C(=C%10)C1:C:C(:C(:C:C:1C(F)(F)F)C1=CC2(C=C(C9:C:C(:C(:C:C:9C(F)(F)F)C(=C4)C35)C(F)(F)F)C1C(=C2)C1:C:C(:C(:C:C:1C(F)(F)F)C(=C7)C86)C(F)(F)F)C1:C:C(:C(:C:C:1C(F)(F)F)C1:N:N:N:N:1)C(F)(F)F)C(F)(F)F)C1:C:C(:C(:C:C:1C(F)(F)F)C1:N:N:N:N:1)C(F)(F)F)C(F)(F)F)C1:C:C(:C(:C:C:1C(F)(F)F)C1:N:N:N:N:1)C(F)(F)F)C(F)(F)F)C1:C:C(:C(:C:C:1C(F)(F)F)C1:N:N:N:N:1)C(F)(F)F,1
SR_lcx_v1-8c_Mn_1_Ch_1B_2NH2_Ch_2x2x2,0.16287,0.68274,0.797844,1804.95,1440.07,15.37472,5.36453,122291.4045,,,,4848,,960,960,768,C32Cl1H24Mn4N40,0.041237113,8,8c_Mn_1_Ch,24,NC1:C:C(C2:N:N:N:N:2):C(N):C:C:1C1:N:N:N:N:1,1
SR_iab_v1-3c_B_Ch_v2-4c_porphyrin_Ch_v3-4c_Cu_1_Ch_1B_2NH2_Ch_ntn_edge_2x2x1,0.21493,0.78908,0.483693,4441.85,2148.49,12.89403,9.6314,113261.2629,,,,3360,,288,256,256,C50Cu2H35N10O8,0.019417476,4,4c_Cu_1_Ch,206,NC1:C:C(C2:C:C(:C:C(:C:2)C2:C3:C:C:C(:N:3):C(C3:C:C(:C:C(:C:3)C3:C:C(N):C(:C:C:3N)C(:O):O)C3:C:C(N):C(:C:C:3N)C(:O):O):C3:C:C:C(:[NH]:3):C(C3:C:C(:C:C(:C:3)C3:C:C(N):C(:C:C:3N)C(:O):O)C3:C:C(N):C(:C:C:3N)C(:O):O):C3:C:C:C(:N:3):C(C3:C:C(:C:C(:C:3)C3:C:C(N):C(:C:C:3N)C(:O):O)C3:C:C(N):C(:C:C:3N)C(:O):O):C3:C:C:C:2:[NH]:3)C2:C:C(N):C(:C:C:2N)C(:O):O):C(N):C:C:1C(:O):O,1
SR_kex_v1-3c_B_Ch_v2-6c_B_Ch_v3-12c_Zr_1_Ch_1B_2SH_Ch_2x2x1,0.14921,0.66132,0.823911,2063.73,1700.33,10.22696,5.12906,80522.69057,,,,2640,,384,384,192,C81H47O16S18Zr3,0.018518519,12,12c_Zr_1_Ch,312,O:C(:O)C1:C:C(S):C(:C:C:1S)C1:C:C(:C:C(:C:1)C1:C:C(S):C(:C:C:1S)C1:C(C2:C:C(S):C(:C:C:2S)C2:C:C(:C:C(:C:2)C2:C:C(S):C(:C:C:2S)C(:O):O)C2:C:C(S):C(:C:C:2S)C(:O):O):C(C2:C:C(S):C(:C:C:2S)C2:C:C(:C:C(:C:2)C2:C:C(S):C(:C:C:2S)C(:O):O)C2:C:C(S):C(:C:C:2S)C(:O):O):C(C2:C:C(S):C(:C:C:2S)C2:C:C(:C:C(:C:2)C2:C:C(S):C(:C:C:2S)C(:O):O)C2:C:C(S):C(:C:C:2S)C(:O):O):C(C2:C:C(S):C(:C:C:2S)C2:C:C(:C:C(:C:2)C2:C:C(S):C(:C:C:2S)C(:O):O)C2:C:C(S):C(:C:C:2S)C(:O):O):C:1C1:C:C(S):C(:C:C:1S)C1:C:C(:C:C(:C:1)C1:C:C(S):C(:C:C:1S)C(:O):O)C1:C:C(S):C(:C:C:1S)C(:O):O)C1:C:C(S):C(:C:C:1S)C(:O):O,1
SR_fsc_v1-4c_porphyrin_Ch_v2-6c_Zn_1_Ch_1B_2OH_Ch_ntn_edge_2x2x2,0.22886,0.73272,0.715673,2890.85,2068.9,9.32223,6.61524,47530.92816,,,,1680,,256,256,192,C50H26N4O21Zn4,0.03960396,6,6c_Zn_1_Ch,"6,94",O:C(:O)C(:O):O___O:C(:O)C1:C:C(O):C(:C:C:1O)C1:C2:C:C:C(:N:2):C(C2:C:C(O):C(:C:C:2O)C(:O):O):C2:C:C:C(:[NH]:2):C(C2:C:C(O):C(:C:C:2O)C(:O):O):C2:C:C:C(:N:2):C(C2:C:C(O):C(:C:C:2O)C(:O):O):C2:C:C:C:1:[NH]:2,1
SR_htpa_v1-4c_bicyclooctane_Ch_v2-3c_triazine_Ch_v3-4c_bicyclooctane_Ch_v4-3c_Cu_imadazoline_Ch_7_edges_1x1x1,0.07722,0.931,0.185868,5426.89,1008.69,33.63633,31.59345,95502.76752,,,,840,,96,96,96,C20Cu2H8N5,0.060606061,3,3c_Cu_imadazoline_Ch,"170,170,14",C1#CC2=CC3(C#CC4:C:N:N:C:4)C=C4C#CC5=CC6(C#CC7:C:N:N:C:7)C=C7C#CC8=CC9(C#CC%10:C:N:N:C:%10)C=C%10C#CC%11=CC%12(C#CC%13:C:N:N:C:%13)C=C1C%11C(C#CC1=CC%11(C#CC%13:N:C(:N:C(:N:%13)C%13:C:N:N:C:%13)C%13:C:N:N:C:%13)C=C(C#CC(=C3)C24)C1C(C#CC1=CC2(C#CC3:N:C(:N:C(:N:3)C3:C:N:N:C:3)C3:C:N:N:C:3)C=C(C#CC(=C9)C%108)C1C(C#CC(=C6)C57)=C2)=C%11)=C%12___C1#CC2=CC3(C#CC4:C:N:N:C:4)C=C4C#CC5=CC6(C#CC7:C:N:N:C:7)C=C7C#CC8=CC9(C#CC%10:C:N:N:C:%10)C=C%10C#CC%11=CC%12(C#CC%13:C:N:N:C:%13)C=C1C%11C(C#CC1=CC%11(C#CC%13:N:C(:N:C(:N:%13)C%13:C:N:N:C:%13)C%13:C:N:N:C:%13)C=C(C#CC(=C3)C24)C1C(C#CC1=CC2(C#CC3:N:C(:N:C(:N:3)C3:C:N:N:C:3)C3:C:N:N:C:3)C=C(C#CC(=C9)C%108)C1C(C#CC(=C6)C75)=C2)=C%11)=C%12___C1:N:N:C:C:1C1:C:N:N:C:1,1
SR_jaj_v1-3c_triazine_Ch_v2-4c_bicyclooctane_Ch_v3-4c_Ni_1_Ch_ntn_edge_1B_2OH_Ch_2x2x1,0.19597,0.8023,0.467151,4451.5,2079.52,15.42872,7.90537,47539.42792,,,,1264,,72,64,64,C40H20N6Ni1O12,0.012820513,4,4c_Ni_1_Ch,,None,1
SR_isy_v1-4c_In_1_Ch_v2-4c_bicyclooctane_Ch_v3-4c_bicyclooctane_Ch_ntn_edge_1DoU_Ch_1x2x2,0.22214,0.69298,0.792614,2253.16,1785.88,11.83934,4.93384,36419.80164,,,,1440,,256,256,256,C24H12In1O8,0.022727273,4,4c_In_1_Ch,,None,1
SR_jjt_v1-6c_bicyclooctane_Ch_v2-3c_B_Ch_v3-3c_Cu_imadazoline_Ch_2TrU_Ch_1x1x1,0.07312,0.91696,0.221826,6861.73,1522.11,18.05462,14.7472,30526.91383,,,,254,,36,36,36,C77Cu9H23N18,0.076271186,3,3c_Cu_imadazoline_Ch,"42,76",C(C#CC1:C:C(C#CC#CC2:C:N:N:C:2):C:C(C#CC#CC2:C:N:N:C:2):C:1)#CC1:C:N:N:C:1___C(C#CC1:C:N:N:C:1)#CC1=C(C#CC#CC2:C:N:N:C:2)C2C(C#CC#CC3:C:N:N:C:3)=C(C#CC#CC3:C:N:N:C:3)C1C(C#CC#CC1:C:N:N:C:1)=C2C#CC#CC1:C:N:N:C:1,1
SR_kagd_v1-8c_Tb_1_Ch_v2-5c_bicyclooctane_Ch_ntn_edge_1TrU_Ch_2x2x2,0.83385,0.66488,0.951012,1921.66,1827.52,6.79455,6.50706,44651.64315,,,,1408,,256,256,256,C26H6N3O8Tb1,0.023255814,8,8c_Tb_1_Ch,"160,6",O:C(:O)C#CN1:C:C2:C(:C:1)C13C#CC45C6:C:N(C#CC(:O):O):C:C:6C(C#CC67C8:C:N(C#CC(:O):O):C:C:8C(C#CC89C%10:C:N(C#CC(:O):O):C:C:%10C(C#CC2(C2:C:N(C#CC(:O):O):C:C:21)C1:C:N(C#CC(:O):O):C:C:13)(C1:C:N(C#CC(:O):O):C:C:18)C1:C:N(C#CC(:O):O):C:C:19)(C1:C:N(C#CC(:O):O):C:C:16)C1:C:N(C#CC(:O):O):C:C:17)(C1:C:N(C#CC(:O):O):C:C:14)C1:C:N(C#CC(:O):O):C:C:15___O:C(:O)C(:O):O,1
SR_lcx_v1-8c_Mn_1_Ch_2B_2NH2_Ch_1x1x1,0.13178,0.783,0.510722,3372.49,1722.41,21.17398,8.15181,32160.71614,,,,942,,120,120,96,C56Cl1H48Mn4N48,0.026143791,8,8c_Mn_1_Ch,38,NC1:C:C(:C(N):C:C:1C1:N:N:N:N:1)C1:C:C(N):C(:C:C:1N)C1:N:N:N:N:1,1
SR_flue_v1-6c_Cr_1_Ch_2B_2CF3_Ch_1x1x1,0.08791,0.80772,0.535839,2680.9,1436.53,31.43036,7.5499,169435.1501,,,,3776,,480,480,384,C54Cr3F36H12O13,0.026086957,6,6c_Cr_1_Ch,38,O:C(:O)C1:C:C(:C(:C:C:1C(F)(F)F)C1:C:C(:C(:C:C:1C(F)(F)F)C(:O):O)C(F)(F)F)C(F)(F)F,1
SR_jaj_v1-3c_triazine_Ch_v2-4c_1anC_Ch_v3-4c_Ni_1_Ch_1B_2NO2_Ch_2x2x1,0.14454,0.7572,0.606238,3130.17,1897.63,14.50524,7.63729,57472.68943,,,,1664,,72,64,64,C45H12N18Ni1O28,0.009708738,4,4c_Ni_1_Ch,,None,1
SR_kez_v1-6c_Fe_1_Ch_v2-3c_triazine_Ch_v3-6c_B_Ch_1DoU_Ch_1TrU_Ch_2x2x2,0.70418,0.67098,0.825049,1664.24,1373.08,8.45823,4.42171,68530.99055,,,,2144,,480,480,384,C36Fe3H6N9O13,0.046875,6,6c_Fe_1_Ch,126,O:C(:O)C#CC1:N:C(C#CC(:O):O):N:C(C=CC2:C(C=CC3:N:C(C#CC(:O):O):N:C(C#CC(:O):O):N:3):C(C=CC3:N:C(C#CC(:O):O):N:C(C#CC(:O):O):N:3):C(C=CC3:N:C(C#CC(:O):O):N:C(C#CC(:O):O):N:3):C(C=CC3:N:C(C#CC(:O):O):N:C(C#CC(:O):O):N:3):C:2C=CC2:N:C(C#CC(:O):O):N:C(C#CC(:O):O):N:2):N:1,1