name,k,VF,density,ASA_grav,ASA_vol,LPD,PLD,volume,,,,N_atoms,,N_metal_containing_bonds,N_metal_nonmetal_bonds,N_metal_linker_bonds,formula,metal_nonmetal_ratio,metal_node_connectivity,metal_node_name,N_atoms_per_linker,linker_SMILES,N_ccs
SR_ces_v1-4c_B_Ch_v2-6c_Al_1_Ch_v3-4c_porphyrin_Ch_2TrU_Ch_ntn_edge_2x2x1,1.29291,0.55368,0.971279,1215.17,1180.27,10.15576,5.89717,21092.23763,,,,968,,120,120,96,Al3C78H21N6O13,0.025423729,6,6c_Al_1_Ch,234,O:C(:O)C1:C:C2C#CC#CC3:C4:C:C:C(:N:4):C4C#CC#CC5:C:C(C(:O):O):C(:C:C:5C#CC#CC5:C6:C:C:C(:N:6):C(C#CC#CC:2:C:C:1C(:O):O):C1:C:C:C(:[NH]:1):C1C#CC#CC2:C:C(C(:O):O):C(:C:C:2C#CC#CC2:C6:C:C:C(:N:6):C(C#CC#CC6:C:C(C(:O):O):C(:C:C:6C#CC#CC(:C6:C:C:C:1:N:6):C1:C:C:C:5:[NH]:1)C(:O):O):C1:C:C:C(:[NH]:1):C1C#CC#CC5:C:C(C(:O):O):C(:C:C:5C#CC#CC(:C5:C:C:C(:N:5):C(C#CC#CC5:C:C(C(:O):O):C(:C:C:5C#CC#CC(:C5:C:C:C:1:N:5):C1:C:C:C:2:[NH]:1)C(:O):O):C1:C:C:C:3:[NH]:1):C1:C:C:C:4:[NH]:1)C(:O):O)C(:O):O)C(:O):O,1
SR_cbn_v1-4c_bicyclooctane_Ch_v2-4c_bicyclooctane_Ch_v3-4c_Cd_1_Ch_v4-4c_bicyclooctane_Ch_8_edges_1x2x1,0.09832,0.80776,0.418794,4327.61,1812.38,15.03105,11.5539,98791.95793,,,,1960,,64,64,64,C168Cd1H12N56O8,0.004098361,4,4c_Cd_1_Ch,,None,1
SR_cet_v1-3c_B_Ch_v2-6c_Ni_1_Ch_v3-6c_bicyclooctane_Ch_ntn_edge_1B_2CF3_Ch_2x2x1,0.34386,0.51756,1.25534,257.547,323.309,6.61557,3.7405,30179.10241,,,,1568,,144,144,96,C53F18H18Ni2O7,0.020833333,6,6c_Ni_1_Ch,,None,1
SR_crs_v1-6c_CdZn_1_Ch_1B_4CN_Ch_1x1x1,0.07024,0.78502,0.665216,2176.94,1448.14,17.79348,12.30395,48371.65434,,,,1040,,256,256,192,C36Cd3N12O13Zn1,0.06557377,6,6c_CdZn_1_Ch,20,N#CC1:C(C#N):C(C(:O):O):C(C#N):C(C#N):C:1C(:O):O,1
SR_crsd_v1-8c_Mn_1_Ch_v2-4c_1anC_Ch_1B_2SH_Ch_1x1x1,0.20772,0.49984,1.26277,342.216,432.14,6.14126,3.38224,17389.79749,,,,944,,160,160,128,C45Cl1H24Mn4N32S12,0.035087719,8,8c_Mn_1_Ch,"69,22",SC1:C:C(:C(S):C:C:1C1:N:N:N:N:1)C(C1:C:C(S):C(:C:C:1S)C1:N:N:N:N:1)(C1:C:C(S):C(:C:C:1S)C1:N:N:N:N:1)C1:C:C(S):C(:C:C:1S)C1:N:N:N:N:1___SC1:C:C(C2:N:N:N:N:2):C(S):C:C:1C1:N:N:N:N:1,1
SR_buh_v1-4c_bicyclooctane_Ch_v2-12c_Zr_1_Ch_v3-12c_Zr_1_Ch_1TrU_Ch_ntn_edge_1x1x1,0.26089,0.60878,1.12652,1212.16,1365.52,9.66604,4.29225,20357.00926,,,,864,,384,384,192,C27H8O16Zr3,0.058823529,12,12c_Zr_1_Ch,30,O:C(:O)C#CC1=CC2(C#CC(:O):O)C=C(C#CC(:O):O)C1C(=C2)C(:O):O,1
SR_cut_v1-8c_Mn_1_Ch_v2-3c_B_Ch_1B_2NH2_Ch_ntn_edge_2x2x2,0.14161,0.815,0.427502,4178.92,1786.5,16.78343,13.56481,60576.96897,,,,1544,,160,160,128,C80Cl1H60Mn4N48,0.021164021,8,8c_Mn_1_Ch,94,NC1:C:C(C2:N:N:N:N:2):C(N):C:C:1C1:C:C(:C:C(:C:1)C1:C:C(N):C(:C:C:1N)C1:N:N:N:N:1)C1:C:C(:C:C(:C:1)C1:C:C(N):C(:C:C:1N)C1:N:N:N:N:1)C1:C:C(N):C(:C:C:1N)C1:N:N:N:N:1,1
SR_cai_v1-5c_bicyclooctane_Ch_v2-6c_Zn_1_Ch_ntn_edge_1B_2SH_Ch_2x2x2,0.33962,0.64182,0.964816,1641.94,1584.17,7.89507,5.1927,76825.00033,,,,3360,,512,512,384,C52H24N6O13S6Zn4,0.03960396,6,6c_Zn_1_Ch,"6,376",O:C(:O)C(:O):O___O:C(:O)N1:C:C2:C(:C:1)C13C4:C:C(S):C(:C:C:4S)C45C6:C:N(:C:C:6C6(C7:C:C(S):C(:C:C:7S)C78C9:C:N(:C:C:9C9(C%10:C:C(S):C(:C:C:%10S)C%10%11C%12:C:N(:C:C:%12C%12(C%13:C:C(S):C(:C:C:%13S)C2(C2:C:N(:C:C:21)C(:O):O)C1:C:N(:C:C:13)C1:C:C(S):C(:C:C:1S)N1:C:C2:C(:C:1)C13C%13:C:C(S):C(:C:C:%13S)C%13%14C%15:C:N(:C:C:%15C(C%15:C:C(S):C(:C:C:%15S)C%15%16C%17:C:N(:C:C:%17C(C%17:C:C(S):C(:C:C:%17S)C%17%18C%19:C:N(:C:C:%19C(C%19:C:C(S):C(:C:C:%19S)C2(C2:C:N(:C:C:21)C(:O):O)C1:C:N(:C:C:13)C(:O):O)(C1:C:N(:C:C:1%17)C(:O):O)C1:C:N(:C:C:1%18)C1:C:C(S):C(:C:C:1S)N1:C:C%12:C%10:C:1)C(:O):O)(C1:C:N(:C:C:1%15)C(:O):O)C1:C:N(:C:C:1%16)C1:C:C(S):C(:C:C:1S)N1:C:C9:C7:C:1)C(:O):O)(C1:C:N(:C:C:1%13)C(:O):O)C1:C:N(:C:C:1%14)C1:C:C(S):C(:C:C:1S)N1:C:C4:C6:C:1)C(:O):O)C1:C:N(:C:C:1%11)C(:O):O)C(:O):O)C1:C:N(:C:C:18)C(:O):O)C(:O):O)C1:C:N(:C:C:15)C(:O):O)C(:O):O,1
SR_cha_v1-4c_Cd_1_Ch_1B_2CF3_Ch_1x1x1,0.05219,0.83226,0.500843,3761.42,1883.88,17.90304,10.1225,104114.9356,,,,1620,,288,288,288,C20Cd1F12H4O8,0.022727273,4,4c_Cd_1_Ch,22,O:C(:O)C1:C:C(:C(:C:C:1C(F)(F)F)C(:O):O)C(F)(F)F,1
SR_buh_v1-4c_1anC_Ch_v2-12c_Zr_1_Ch_v3-12c_Zr_1_Ch_2B_2CN_Ch_1x1x1,0.13779,0.6837,0.72652,2556.44,1857.3,12.44186,5.95729,78093.13135,,,,2760,,384,384,192,C207H52N48O32Zr6,0.017699115,12,12c_Zr_1_Ch,109,N#CC1:C:C(:C(C#N):C:C:1C(:O):O)C1:C:C(C#N):C(:C:C:1C#N)C(C1:C:C(C#N):C(:C:C:1C#N)C1:C:C(C#N):C(:C:C:1C#N)C(:O):O)(C1:C:C(C#N):C(:C:C:1C#N)C1:C:C(C#N):C(:C:C:1C#N)C(:O):O)C1:C:C(C#N):C(:C:C:1C#N)C1:C:C(C#N):C(:C:C:1C#N)C(:O):O,1
SR_ceu_v1-4c_B_Ch_v2-6c_Ni_1_Ch_v3-4c_Ni_1_Ch_1DoU_Ch_2x2x1,0.25547,0.75376,0.668464,3139.84,2098.87,12.03008,7.88912,67285.73611,,,,1904,,504,480,384,C54H32Ni7O26,0.0625,"4,6","4c_Ni_1_Ch,6c_Ni_1_Ch",36,O:C(:O)C=CC1:C:C(C=CC(:O):O):C(C=CC(:O):O):C:C:1C=CC(:O):O,1
SR_crsd_v1-8c_Mn_1_Ch_v2-4c_1anC_Ch_ntn_edge_1B_2NO2_Ch_1x1x1,0.24273,0.5846,1.10821,0,0,5.76619,3.41329,17693.26054,,,,816,,160,160,128,C33Cl1H8Mn4N40O16,0.040816327,8,8c_Mn_1_Ch,"10,77",N1:N:N:C(:N:1)C1:N:N:N:N:1___O:N(:O)C1:C:C(:C(:C:C:1C1:N:N:N:N:1)N(:O):O)C(C1:C:C(:C(:C:C:1N(:O):O)C1:N:N:N:N:1)N(:O):O)(C1:C:C(:C(:C:C:1N(:O):O)C1:N:N:N:N:1)N(:O):O)C1:C:C(:C(:C:C:1N(:O):O)C1:N:N:N:N:1)N(:O):O,1
SR_ced_v1-3c_triazine_Ch_v2-12c_Mn_1_Ch_ntn_edge_1B_2CF3_Ch_2x2x2,0.20248,0.54674,1.2712,463.541,589.255,7.25155,4.39868,48776.05701,,,,2200,,336,336,144,C126F72H24Mn8N18O27,0.029962547,12,12c_Mn_1_Ch,"88,88",OC(:O)C1:C:C(:C(:C:C:1C(F)(F)F)C1:N:C(:N:C(:N:1)C1:C:C(:C(:C:C:1C(F)(F)F)C(:O):O)C(F)(F)F)C1:N:C(:N:C(:N:1)C1:C:C(:C(:C:C:1C(F)(F)F)C(:O):O)C(F)(F)F)C1:C:C(:C(:C:C:1C(F)(F)F)C(:O):O)C(F)(F)F)C(F)(F)F___OC(:O)C1:C:C(:C(:C:C:1C(F)(F)F)C1:N:C(:N:C(:N:1)C1:C:C(:C(:C:C:1C(F)(F)F)C(:O):O)C(F)(F)F)C1:N:C(:N:C(:N:1)C1:C:C(:C(:C:C:1C(F)(F)F)C(:O):O)C(F)(F)F)C1:C:C(:C(:C:C:1C(F)(F)F)C(O):O)C(F)(F)F)C(F)(F)F,1
SR_cds_v1-4c_Ni_1_Ch_1B_2Br_Ch_2x2x2,0.68254,0.73484,0.979007,2422.76,2371.9,9.18793,5.76029,82632.47244,,,,2176,,576,512,512,Br2C8H2Ni1O4,0.0625,4,4c_Ni_1_Ch,16,O:C(:O)C1:C:C(Br):C(:C:C:1Br)C(:O):O,1
SR_crsd_v1-8c_Mn_1_Ch_v2-4c_1anC_Ch_1B_4CN_Ch_ntn_edge_1x1x1,0.22172,0.5509,1.12085,99.6709,111.716,6.35794,3.74809,17970.22942,,,,816,,160,160,128,C49Cl1Mn4N48,0.040816327,8,8c_Mn_1_Ch,"77,10",N#CC1:C(C#N):C(:C(C#N):C(C#N):C:1C1:N:N:N:N:1)C(C1:C(C#N):C(C#N):C(C2:N:N:N:N:2):C(C#N):C:1C#N)(C1:C(C#N):C(C#N):C(C2:N:N:N:N:2):C(C#N):C:1C#N)C1:C(C#N):C(C#N):C(C2:N:N:N:N:2):C(C#N):C:1C#N___N1:N:N:C(:N:1)C1:N:N:N:N:1,1
SR_buh_v1-4c_bicyclooctane_Ch_v2-12c_Eu_1_Ch_v3-12c_Eu_1_Ch_ntn_edge_1DoU_Ch_1x1x1,0.19467,0.56298,1.48238,499.808,740.904,8.4258,3.70215,19014.30634,,,,1008,,384,384,192,C27Eu3H17O16,0.05,12,12c_Eu_1_Ch,36,O:C(:O)C=CC1=CC2(C=CC(:O):O)C=C(C=CC(:O):O)C1C(=C2)C(:O):O,1
SR_cdj_v1-3c_pyrrole_Ch_v2-6c_Ni_1_Ch_ntn_edge_1B_4F_Ch_2x2x2,0.24668,0.52078,1.46436,0,0,5.23437,3.36354,69024.23403,,,,3968,,1152,1152,768,C27F6H8N3Ni4O14,0.068965517,6,6c_Ni_1_Ch,"36,36",O:C(:O)C1:C:C:C(C(:O):O):N:1C1:C(F):C(F):C(:C(F):C:1F)N1:C(:C:C:C:1C(:O):O)C(:O):O___O:C(:O)C1:C:C:C(C2:C(F):C(F):C(:C(F):C:2F)N2:C(:C:C:C:2C(:O):O)C(:O):O):N:1C(:O):O,1
SR_crsd_v1-8c_Co_1_Ch_v2-4c_bicyclooctane_Ch_1B_4H_Ch_1TrU_Ch_1x1x1,0.30265,0.63986,0.931324,1762.79,1641.73,6.72644,3.85993,15072.55837,,,,680,,160,160,128,C44Co4H20O17,0.049382716,8,8c_Co_1_Ch,"8,64",O:C(:O)C#CC(:O):O___O:C(:O)C1:C:C:C(:C:C:1)C1=CC2(C=C(C3:C:C:C(:C:C:3)C(:O):O)C1C(=C2)C1:C:C:C(:C:C:1)C(:O):O)C1:C:C:C(:C:C:1)C(:O):O,1
SR_ced_v1-3c_B_Ch_v2-12c_Mn_1_Ch_ntn_edge_1TrU_Ch_2x2x2,0.29179,0.6643,0.858002,2338.7,2006.61,8.10774,5.66051,31382.9921,,,,1000,,336,336,144,C72H18Mn8O27,0.068376068,12,12c_Mn_1_Ch,38,OC(:O)C#CC1:C:C(C#CC(:O):O):C:C(:C:1)C1:C:C(C#CC(O):O):C:C(C#CC(:O):O):C:1,1
SR_cut_v1-8c_Co_1_Ch_v2-3c_B_Ch_4B_fused_8H_Ch_ntn_edge_1x1x2,0.12051,0.84714,0.334927,4812.24,1611.75,20.36077,16.6791,24862.58698,,,,514,,40,40,32,C160Co4H76O17,0.015810277,8,8c_Co_1_Ch,126,O:C(:O)C1:C:C2:C:C:C3:C:C(:C:C4:C:C:C(:C:1):C:2:C:3:4)C1:C:C(:C:C(:C:1)C1:C:C2:C:C:C3:C:C(:C:C4:C:C:C(:C:1):C:2:C:3:4)C(:O):O)C1:C:C(:C:C(:C:1)C1:C:C2:C:C:C3:C:C(:C:C4:C:C:C(:C:1):C:2:C:3:4)C(:O):O)C1:C:C2:C:C:C3:C:C(:C:C4:C:C:C(:C:1):C:2:C:3:4)C(:O):O,1
SR_bsn_v1-6c_CdZn_1_Ch_1TrU_Ch_2x2x2,0.19319,0.79132,0.902537,2560.59,2311.02,9.39477,8.5275,88874.85699,,,,1856,,1024,1024,768,C12Cd3O13Zn1,0.16,6,6c_CdZn_1_Ch,8,O:C(:O)C#CC(:O):O,1
SR_ceu_v1-4c_B_Ch_v2-6c_Ni_1_Ch_v3-4c_Ni_1_Ch_1B_4H_Ch_1DoU_Ch_2x2x1,0.21649,0.76476,0.602633,3425.67,2064.42,12.80858,7.17764,90098.4531,,,,2480,,504,480,384,C78H44Ni7O26,0.047297297,"4,6","4c_Ni_1_Ch,6c_Ni_1_Ch",48,O:C(:O)C=CC1:C:C(C2:C:C:C(:C:C:2)C(:O):O):C(:C:C:1C=CC(:O):O)C1:C:C:C(:C:C:1)C(:O):O,1
SR_ceq_v1-6c_Al_1_Ch_v2-6c_bicyclooctane_Ch_v3-3c_triazine_Ch_1B_2CN_Ch_ntn_edge_2x2x2,0.45747,0.57438,0.978818,801.329,784.355,8.37471,3.7125,27912.06044,,,,1200,,120,120,96,Al3C88H16N30O13,0.020408163,6,6c_Al_1_Ch,,None,1
SR_cla_v1-4c_1anC_Ch_v2-4c_1anC_Ch_v3-4c_1anC_Ch_v4-4c_Cd_1_Ch_1B_4Br_Ch_ntn_edge_1x1x1,0.1151,0.56226,1.7882,687.533,1229.44,9.78595,4.10233,29241.33311,,,,1098,,384,384,384,Br88C245Cd24O192,0.045714286,4,4c_Cd_1_Ch,"6,309",O:C(:O)C(:O):O___O:C(:O)C1(C(:O):O)C2:C(Br):C(Br):C(:C(Br):C:2Br)C(C(:O):O)(C(:O):O)C2:C(Br):C(Br):C(:C(Br):C:2Br)C23C4:C(Br):C(Br):C(:C(Br):C:4Br)C(C(:O):O)(C(:O):O)C4:C(Br):C(Br):C(:C(Br):C:4Br)C(C(:O):O)(C(:O):O)C4:C(Br):C(Br):C(:C(Br):C:4Br)C45C6:C(Br):C(Br):C(:C(Br):C:6Br)C(C(:O):O)(C(:O):O)C6:C(Br):C(Br):C(:C(Br):C:6Br)C(C(:O):O)(C(:O):O)C6:C(Br):C(Br):C(:C(Br):C:6Br)C6(C7:C(Br):C(Br):C1:C(Br):C:7Br)C1:C(Br):C(Br):C(:C(Br):C:1Br)C(C(:O):O)(C(:O):O)C1:C(Br):C(Br):C(:C(Br):C:1Br)C(C(:O):O)(C(:O):O)C1:C(Br):C(Br):C(:C(Br):C:1Br)C(C1:C(Br):C(Br):C(:C(Br):C:1Br)C(C(:O):O)(C(:O):O)C1:C(Br):C(Br):C(:C(Br):C:1Br)C(C(:O):O)(C(:O):O)C1:C(Br):C(Br):C2:C(Br):C:1Br)(C1:C(Br):C(Br):C(:C(Br):C:1Br)C(C(:O):O)(C(:O):O)C1:C(Br):C(Br):C(:C(Br):C:1Br)C(C(:O):O)(C(:O):O)C1:C(Br):C(Br):C4:C(Br):C:1Br)C1:C(Br):C(Br):C(:C(Br):C:1Br)C(C1:C(Br):C(Br):C6:C(Br):C:1Br)(C1:C(Br):C(Br):C3:C(Br):C:1Br)C1:C(Br):C(Br):C5:C(Br):C:1Br,1
SR_buh_v1-4c_1anC_Ch_v2-12c_Zr_1_Ch_v3-12c_Zr_1_Ch_2B_2Br_Ch_1x1x1,0.09796,0.67666,1.17316,1550.56,1819.06,12.66541,5.31943,77659.64373,,,,2376,,384,384,192,Br48C159H52O32Zr6,0.020618557,12,12c_Zr_1_Ch,93,O:C(:O)C1:C:C(Br):C(:C:C:1Br)C1:C:C(Br):C(:C:C:1Br)C(C1:C:C(Br):C(:C:C:1Br)C1:C:C(Br):C(:C:C:1Br)C(:O):O)(C1:C:C(Br):C(:C:C:1Br)C1:C:C(Br):C(:C:C:1Br)C(:O):O)C1:C:C(Br):C(:C:C:1Br)C1:C:C(Br):C(:C:C:1Br)C(:O):O,1
SR_ddc_v1-3c_Cu_imadazoline_Ch_v2-4c_1anC_Ch_ntn_edge_1B_2OH_Ch_1x1x1,0.12606,0.79252,0.609027,2014.87,1227.11,20.11982,10.54664,12412.47538,,,,348,,48,48,48,C13Cu2H8N4O2,0.074074074,3,3c_Cu_imadazoline_Ch,108,OC1:C:C2:C(O):C:C:1C(C1:C:N:N:C:1)(C1:C:N:N:C:1)C1:C:C(O):C(:C:C:1O)C(C1:C:N:N:C:1)(C1:C:N:N:C:1)C1:C:C(O):C(:C:C:1O)C(C1:C:N:N:C:1)(C1:C:N:N:C:1)C1:C:C(O):C(:C:C:1O)C2(C1:C:N:N:C:1)C1:C:N:N:C:1,1
SR_ceh_v1-3c_pyrrole_Ch_v2-6c_Mg_1_Ch_v3-4c_1anC_Ch_2B_4CN_Ch_1x1x2,0.22716,0.61616,0.818601,1605.37,1314.16,7.99075,4.51603,34849.50656,,,,1194,,60,60,24,C133H6Mg2N50O8,0.010152284,6,6c_Mg_1_Ch,,None,1
SR_ceu_v1-4c_B_Ch_v2-6c_Ni_1_Ch_v3-4c_Ni_1_Ch_1B_2NH2_Ch_ntn_edge_2x2x1,0.2109,0.70048,0.80465,2523.7,2030.7,9.56464,6.63325,67035.70878,,,,2480,,504,480,384,C66H44N12Ni7O26,0.047297297,"4,6","4c_Ni_1_Ch,6c_Ni_1_Ch",48,NC1:C:C(:C(N):C:C:1C(:O):O)C1:C:C(C(:O):O):C(:C:C:1C1:C:C(N):C(:C:C:1N)C(:O):O)C(:O):O,1
SR_cda_v1-4c_1anC_Ch_v2-4c_In_1_Ch_2B_2CF3_Ch_1x1x1,0.06637,0.77756,0.628049,3058.58,1920.93,13.9806,12.7012,33203.09918,,,,876,,64,64,64,C105F72H24In2O16,0.00921659,4,4c_In_1_Ch,"38,141",O:C(:O)C1:C:C(:C(:C:C:1C(F)(F)F)C1:C:C(:C(:C:C:1C(F)(F)F)C(:O):O)C(F)(F)F)C(F)(F)F___O:C(:O)C1:C:C(:C(:C:C:1C(F)(F)F)C1:C:C(:C(:C:C:1C(F)(F)F)C(C1:C:C(:C(:C:C:1C(F)(F)F)C1:C:C(:C(:C:C:1C(F)(F)F)C(:O):O)C(F)(F)F)C(F)(F)F)(C1:C:C(:C(:C:C:1C(F)(F)F)C1:C:C(:C(:C:C:1C(F)(F)F)C(:O):O)C(F)(F)F)C(F)(F)F)C1:C:C(:C(:C:C:1C(F)(F)F)C1:C:C(:C(:C:C:1C(F)(F)F)C(:O):O)C(F)(F)F)C(F)(F)F)C(F)(F)F)C(F)(F)F,1
SR_ces_v1-4c_B_Ch_v2-6c_bicyclooctane_Ch_v3-4c_V_1_Ch_1B_2indole_Ch_ntn_edge_2x2x2,0.29084,0.78244,0.509458,3958.24,2016.55,11.92042,9.97014,99979.26939,,,,2608,,216,192,192,C92H44N12O12V3,0.01875,4,4c_V_1_Ch,,None,1
SR_cdl_v1-4c_V_1_Ch_1B_2NH2_Ch_2x2x1,0.49694,0.75694,0.633653,4076.76,2583.25,10.24365,6.02555,82211.01534,,,,2688,,576,512,512,C8H6N2O4V1,0.05,4,4c_V_1_Ch,20,NC1:C:C(C(:O):O):C(N):C:C:1C(:O):O,1
SR_ced_v1-3c_triazine_Ch_v2-12c_Mn_1_Ch_1TrU_Ch_2TrU_Ch_2x2x2,0.13172,0.8052,0.485602,4599.69,2233.62,12.61608,8.24348,67382.05154,,,,1096,,336,336,144,C84Mn8N18O27,0.062015504,12,12c_Mn_1_Ch,42,OC(:O)C#CC#CC1:N:C(C#CC#CC(:O):O):N:C(C#CC2:N:C(C#CC#CC(O):O):N:C(C#CC#CC(:O):O):N:2):N:1,1
SR_cev_v1-4c_ethene_Ch_v2-4c_ethene_Ch_v3-4c_Cu_1_Ch_ntn_edge_1B_2Br_Ch_2x2x1,0.45732,0.48842,1.86507,243.654,454.432,7.30807,3.68963,32555.29913,,,,1440,,216,192,192,Br4C17Cu1H4O4,0.034482759,4,4c_Cu_1_Ch,,None,1
SR_buh_v1-4c_bicyclooctane_Ch_v2-12c_Eu_1_Ch_v3-12c_Eu_1_Ch_1B_2NO2_Ch_1x1x1,0.13785,0.5718,1.24886,0,0,8.43462,3.68679,41141.0728,,,,2064,,384,384,192,C54Eu3H20N12O40,0.023809524,12,12c_Eu_1_Ch,80,O:C(:O)C1:C:C(:C(:C:C:1N(:O):O)C1=CC2(C=C(C3:C:C(:C(:C:C:3N(:O):O)C(:O):O)N(:O):O)C1C(=C2)C1:C:C(:C(:C:C:1N(:O):O)C(:O):O)N(:O):O)C1:C:C(:C(:C:C:1N(:O):O)C(:O):O)N(:O):O)N(:O):O,1
SR_btv_v1-5c_bicyclooctane_Ch_v2-6c_Zn_1_Ch_ntn_edge_1B_2NO2_Ch_2x2x1,0.22294,0.72854,0.708759,2431.21,1723.14,13.33939,11.27856,40065.13518,,,,1336,,128,128,96,C76H26N20O41Zn4,0.024539877,6,6c_Zn_1_Ch,,None,1
SR_btv_v1-5c_bicyclooctane_Ch_v2-6c_Zn_1_Ch_ntn_edge_1B_2Br_Ch_2x2x2,0.26645,0.68362,1.02749,1515.3,1556.95,8.55161,6.09512,43331.24248,,,,1584,,256,256,192,Br6C52H18N6O13Zn4,0.042105263,6,6c_Zn_1_Ch,"6,352",O:C(:O)C(:O):O___O:C(:O)N1:C:C2:C(:C:1)C13C4:C:C(Br):C(:C:C:4Br)C45C6:C:N(:C:C:6C6(C7:C:C(Br):C(:C:C:7Br)C78C9:C:N(:C:C:9C9(C%10:C:C(Br):C(:C:C:%10Br)C%10%11C%12:C:N(:C:C:%12C%12(C%13:C:C(Br):C(:C:C:%13Br)C2(C2:C:N(:C:C:21)C(:O):O)C1:C:N(:C:C:13)C1:C:C(Br):C(:C:C:1Br)N1:C:C2:C(:C:1)C13C%13:C:C(Br):C(:C:C:%13Br)C%13%14C%15:C:N(:C:C:%15C(C%15:C:C(Br):C(:C:C:%15Br)C%15%16C%17:C:N(:C:C:%17C(C%17:C:C(Br):C(:C:C:%17Br)C%17%18C%19:C:N(:C:C:%19C(C%19:C:C(Br):C(:C:C:%19Br)C2(C2:C:N(:C:C:21)C(:O):O)C1:C:N(:C:C:13)C(:O):O)(C1:C:N(:C:C:1%17)C(:O):O)C1:C:N(:C:C:1%18)C1:C:C(Br):C(:C:C:1Br)N1:C:C%12:C%10:C:1)C(:O):O)(C1:C:N(:C:C:1%15)C(:O):O)C1:C:N(:C:C:1%16)C1:C:C(Br):C(:C:C:1Br)N1:C:C9:C7:C:1)C(:O):O)(C1:C:N(:C:C:1%13)C(:O):O)C1:C:N(:C:C:1%14)C1:C:C(Br):C(:C:C:1Br)N1:C:C4:C6:C:1)C(:O):O)C1:C:N(:C:C:1%11)C(:O):O)C(:O):O)C1:C:N(:C:C:18)C(:O):O)C(:O):O)C1:C:N(:C:C:15)C(:O):O)C(:O):O,1
SR_ceq_v1-6c_Cr_1_Ch_v2-6c_bicyclooctane_Ch_v3-3c_triazine_Ch_1B_2F_Ch_2x2x2,0.17959,0.78288,0.530686,3524.28,1870.28,12.972,11.42783,89936.57576,,,,2064,,120,120,96,C148Cr3F36H40N18O13,0.011764706,6,6c_Cr_1_Ch,,None,1
SR_btv_v1-5c_bicyclooctane_Ch_v2-6c_Ni_1_Ch_2B_4CN_Ch_ntn_edge_2x1x1,0.34945,0.50482,1.17982,782.909,923.688,8.89705,7.23562,13378.15839,,,,736,,72,72,48,C57H7N19Ni2O7,0.022222222,6,6c_Ni_1_Ch,,None,1
SR_brl_v1-4c_Ni_1_Ch_v2-4c_bicyclooctane_Ch_1B_2thiophene_Ch_1x1x2,0.10029,0.90212,0.235608,5516.52,1299.74,23.33252,19.63327,79097.53502,,,,804,,54,48,48,C40H16Ni1O4S6,0.015151515,4,4c_Ni_1_Ch,396,O:C(:O)C1:C:C2:C:C3:S:C(:C:C:3:C:C:2:S:1)C1=CC23C=C(C4:C:C5:C:C6:S:C(:C:C:6:C:C:5:S:4)C4=CC5(C=C(C6:C:C7:C:C8:S:C(:C:C:8:C:C:7:S:6)C(:O):O)C4C(=C5)C4:C:C5:C:C6:S:C(:C:C:6:C:C:5:S:4)C(:O):O)C4:C:C5:C:C6:S:C(:C:C:6:C:C:5:S:4)C4=CC5(C=C(C6:C:C7:C:C8:S:C(:C:C:8:C:C:7:S:6)C(:O):O)C4C(=C5)C4:C:C5:C:C6:S:C(:C:C:6:C:C:5:S:4)C(:O):O)C4:C:C5:C:C6:S:C(:C:C:6:C:C:5:S:4)C45C=C(C6:C:C7:C:C8:S:C(:C:C:8:C:C:7:S:6)C(:O):O)C(C(=C4)C4:C:C6:C:C7:S:C(:C:C:7:C:C:6:S:4)C(:O):O)C(=C5)C4:C:C5:C:C6:S:C(:C:C:6:C:C:5:S:4)C45C=C(C6:C:C7:C:C8:S:C(:C:C:8:C:C:7:S:6)C(:O):O)C(C(=C4)C4:C:C6:C:C7:S:C(:C:C:7:C:C:6:S:4)C(:O):O)C(=C5)C4:C:C5:C:C6:S:C(:C:C:6:C:C:5:S:4)C45C=C(C6:C:C7:C:C8:S:C(:C:C:8:C:C:7:S:6)C(:O):O)C(C(=C4)C4:C:C6:C:C7:S:C(:C:C:7:C:C:6:S:4)C(:O):O)C(=C5)C4:C:C5:C:C6:S:C2:C:C:6:C:C:5:S:4)C1C(=C3)C1:C:C2:C:C3:S:C(:C:C:3:C:C:2:S:1)C(:O):O,1
SR_crs_v1-6c_CdZn_1_Ch_4B_fused_8H_Ch_1x1x1,0.06924,0.89432,0.305111,4398.79,1342.12,27.46469,20.04452,111756.3939,,,,1520,,256,256,192,C54Cd3H24O13Zn1,0.043956044,6,6c_CdZn_1_Ch,30,O:C(:O)C1:C:C2:C:C:C3:C:C(:C:C4:C:C:C(:C:1):C:2:C:3:4)C(:O):O,1
SR_ced_v1-3c_triazine_Ch_v2-12c_Mn_1_Ch_2TrU_Ch_1DoU_Ch_2x2x2,0.19811,0.69972,0.775533,2772.39,2150.08,10.12044,5.04319,38426.99237,,,,1144,,336,336,144,C66H24Mn8N18O27,0.059259259,12,12c_Mn_1_Ch,"44,44",OC(:O)C=CC1:N:C(C#CC#CC2:N:C(C=CC(:O):O):N:C(C=CC(:O):O):N:2):N:C(C=CC(:O):O):N:1___OC(:O)C=CC1:N:C(C#CC#CC2:N:C(C=CC(O):O):N:C(C=CC(:O):O):N:2):N:C(C=CC(:O):O):N:1,1
SR_cdle_v1-4c_Cu_1_Ch_v2-4c_bicyclooctane_Ch_v3-4c_Cu_1_Ch_1DoU_Ch_1TrU_Ch_2x2x1,0.23113,0.81468,0.548486,3998.36,2193.04,11.30191,8.52572,29302.77068,,,,624,,216,192,192,C6Cu1H2O4,0.083333333,4,4c_Cu_1_Ch,"8,40",O:C(:O)C#CC(:O):O___O:C(:O)C=CC1=CC2(C=CC(:O):O)C=C(C=CC(:O):O)C1C(C=CC(:O):O)=C2,1
SR_crsd_v1-8c_Mn_1_Ch_v2-4c_bicyclooctane_Ch_1B_4H_Ch_ntn_edge_1x1x1,0.28331,0.7128,0.714601,3494.36,2497.07,8.09204,5.18933,22384.56026,,,,776,,160,160,128,C40Cl1H20Mn4N32,0.043010753,8,8c_Mn_1_Ch,"72,10",C1=C(C2:C:C:C(:C:C:2)C2:N:N:N:N:2)C2C(=CC1(C=C2C1:C:C:C(:C:C:1)C1:N:N:N:N:1)C1:C:C:C(:C:C:1)C1:N:N:N:N:1)C1:C:C:C(:C:C:1)C1:N:N:N:N:1___N1:N:N:C(:N:1)C1:N:N:N:N:1,1
SR_buh_v1-4c_1anC_Ch_v2-12c_Eu_1_Ch_v3-12c_Eu_1_Ch_1B_4Br_Ch_1x1x1,0.12734,0.37722,2.85139,0,0,6.48969,1.93558,29400.1693,,,,1416,,384,384,192,Br48C87Eu6H4O32,0.035087719,12,12c_Eu_1_Ch,53,O:C(:O)C1:C(Br):C(Br):C(:C(Br):C:1Br)C(C1:C(Br):C(Br):C(C(:O):O):C(Br):C:1Br)(C1:C(Br):C(Br):C(C(:O):O):C(Br):C:1Br)C1:C(Br):C(Br):C(C(:O):O):C(Br):C:1Br,1
SR_ctnd_v1-3c_Cu_imadazoline_Ch_v2-3c_Cu_imadazoline_Ch_1TrU_Ch_1DoU_Ch_1x1x1,0.08857,0.96588,0.109594,6015.8,659.293,32.82626,24.6177,258965.2147,,,,1176,,240,240,240,C20Cu5H14N10,0.113636364,3,3c_Cu_imadazoline_Ch,"16,18",C(#CC1:C:N:N:C:1)C1:C:N:N:C:1___C(=CC1:C:N:N:C:1)C1:C:N:N:C:1,1
SR_diag_v1-3c_Cu_imadazoline_Ch_2B_4F_Ch_1x1x1,0.01794,0.98372,0.0500663,5697.26,285.241,57.73126,48.26934,442048.2437,,,,864,,96,96,96,C9Cu1F4H2N2,0.058823529,3,3c_Cu_imadazoline_Ch,34,FC1:C(F):C(:C(F):C(F):C:1C1:C:N:N:C:1)C1:C(F):C(F):C(C2:C:N:N:C:2):C(F):C:1F,1
SR_cet_v1-3c_triazine_Ch_v2-6c_Zn_1_Ch_v3-6c_bicyclooctane_Ch_ntn_edge_1B_2SH_Ch_2x2x1,0.31469,0.58122,1.08234,688.277,744.949,8.53699,3.66043,28957.42218,,,,1208,,128,128,96,C76H28N18O13S12Zn4,0.027210884,6,6c_Zn_1_Ch,,None,1
SR_btv_v1-5c_bicyclooctane_Ch_v2-6c_Ni_1_Ch_ntn_edge_1B_2NO2_Ch_2x2x1,0.22745,0.7159,0.730251,2172.6,1586.54,13.2124,11.74148,38751.05569,,,,1360,,144,144,96,C38H14N10Ni2O21,0.024096386,6,6c_Ni_1_Ch,,None,1
SR_ced_v1-3c_B_Ch_v2-12c_Mn_1_Ch_1B_2OH_Ch_ntn_edge_2x2x2,0.22473,0.64258,0.866933,2109.34,1828.66,7.8238,4.76422,49058.69159,,,,1960,,336,336,144,C120H66Mn8O51,0.033755274,12,12c_Mn_1_Ch,78,OC(:O)C1:C:C(O):C(:C:C:1O)C1:C:C(:C:C(:C:1)C1:C:C(O):C(:C:C:1O)C(:O):O)C1:C:C(:C:C(:C:1)C1:C:C(O):C(:C:C:1O)C(:O):O)C1:C:C(O):C(:C:C:1O)C(O):O,1
SR_cdz_v1-4c_Cu_1_Ch_v2-4c_porphyrin_Ch_ntn_edge_1DoU_Ch_1B_4H_Ch_2x1x1,0.96044,0.7351,0.617905,3980.83,2459.78,8.76818,6.78747,25226.8116,,,,928,,72,64,64,C32Cu1H17N4O4,0.01754386,4,4c_Cu_1_Ch,"208,208,10",O:C(:O)C1:C2:C:C:C(:N:2):C2C3:C:C:C(:C:C:3)C3:C4:C:C:C(:N:4):C4C5:C:C:C(:C:C:5)C5:C6:C:C:C(:N:6):C6C7:C:C:C(:C:C:7)C7:C8:C:C:C(:N:8):C(C(:O):O):C8:C:C:C(:[NH]:8):C(C8:C:C:C(:C:C:8)C(:C8:C:C:C(:N:8):C(C(:O):O):C8:C:C:C:6:[NH]:8):C6:C:C:C:5:[NH]:6):C5:C:C:C(:N:5):C(C5:C:C:C(:C:C:5)C(:C5:C:C:C(:N:5):C(C5:C:C:C(:C:C:5)C(:C5:C:C:C(:N:5):C(C(:O):O):C5:C:C:C:3:[NH]:5):C3:C:C:C:4:[NH]:3):C3:C:C:C:1:[NH]:3):C1:C:C:C:2:[NH]:1):C1:C:C:C:7:[NH]:1___O:C(:O)C1:C2:C:C:C(:N:2):C2C3:C:C:C(:C:C:3)C3:C4:C:C:C(:N:4):C4C5:C:C:C(:C:C:5)C5:C6:C:C:C(:N:6):C6C7:C:C:C(:C:C:7)C7:C8:C:C:C(:N:8):C(C8:C:C:C(:C:C:8)C(:C8:C:C:C(:N:8):C(C8:C:C:C(:C:C:8)C(:C8:C:C:C(:N:8):C(C(:O):O):C8:C:C:C:3:[NH]:8):C3:C:C:C:4:[NH]:3):C3:C:C:C:1:[NH]:3):C1:C:C:C:2:[NH]:1):C1:C:C:C(:[NH]:1):C(C1:C:C:C(:C:C:1)C(:C1:C:C:C(:N:1):C(C(:O):O):C1:C:C:C:6:[NH]:1):C1:C:C:C:5:[NH]:1):C1:C:C:C(:N:1):C(C(:O):O):C1:C:C:C:7:[NH]:1___O:C(:O)C=CC(:O):O,1
SR_cdl_v1-4c_V_1_Ch_1B_2OH_Ch_2x2x1,0.59616,0.7685,0.636466,4161.66,2648.75,10.08308,6.20393,82508.08925,,,,2432,,576,512,512,C8H4O6V1,0.055555556,4,4c_V_1_Ch,18,O:C(:O)C1:C:C(O):C(:C:C:1O)C(:O):O,1