name,k,VF,density,ASA_grav,ASA_vol,LPD,PLD,volume,,,,N_atoms,,N_metal_containing_bonds,N_metal_nonmetal_bonds,N_metal_linker_bonds,formula,metal_nonmetal_ratio,metal_node_connectivity,metal_node_name,N_atoms_per_linker,linker_SMILES,N_ccs
SR_asv_v1-4c_Ni_1_Ch_v2-4c_1anC_Ch_2B_2CH3_Ch_ntn_edge_2x2x2,0.16904,0.77592,0.462655,3648.32,1687.92,16.62857,14.71443,67490.10274,,,,2336,,144,128,128,C36H32Ni1O4,0.013888889,4,4c_Ni_1_Ch,288,CC1:C:C(:C(C):C:C:1C(:O):O)C1:C:C(C):C(:C:C:1C)C12C3(C4:C:C(C):C(:C:C:4C)C4:C:C(C):C(:C:C:4C)C(:O):O)C4(C5:C:C(C):C(:C:C:5C)C5:C:C(C):C(:C:C:5C)C(:O):O)C1(C1:C:C(C):C(:C:C:1C)C1:C:C(C):C(:C:C:1C)C(:O):O)C1(C5:C:C(C):C(:C:C:5C)C5:C:C(C):C(:C:C:5C)C(:O):O)C2(C2:C:C(C):C(:C:C:2C)C2:C:C(C):C(:C:C:2C)C(:O):O)C3(C2:C:C(C):C(:C:C:2C)C2:C:C(C):C(:C:C:2C)C(:O):O)C41C1:C:C(C):C(:C:C:1C)C1:C:C(C):C(:C:C:1C)C(:O):O,1
SR_bbe_v1-4c_Ni_1_Ch_v2-4c_1anC_Ch_1B_2NH2_Ch_2x2x1,0.3525,0.6685,0.808638,2578.42,2085.01,7.28908,4.95267,24123.57261,,,,1136,,144,128,128,C29H24N8Ni2O8,0.028985507,4,4c_Ni_1_Ch,"196,20",NC1:C:C(:C(N):C:C:1C(:O):O)C1(C2:C:C(N):C(:C:C:2N)C(:O):O)C2:C:C(N):C(:C:C:2N)C(C2:C:C(N):C(:C:C:2N)C(:O):O)(C2:C:C(N):C(:C:C:2N)C(:O):O)C2:C:C(N):C(:C:C:2N)C(C2:C:C(N):C(:C:C:2N)C(:O):O)(C2:C:C(N):C(:C:C:2N)C(:O):O)C2:C:C(N):C(:C:C:2N)C(C2:C:C(N):C(:C:C:2N)C(:O):O)(C2:C:C(N):C(:C:C:2N)C(:O):O)C2:C:C(N):C1:C:C:2N___NC1:C:C(C(:O):O):C(N):C:C:1C(:O):O,1
SR_asv_v1-4c_V_1_Ch_v2-4c_1anC_Ch_1B_2NO2_Ch_2x2x2,0.18447,0.64112,0.897522,1382.83,1241.12,14.14897,11.92743,58822.59375,,,,2528,,144,128,128,C34H10N10O24V1,0.012820513,4,4c_V_1_Ch,312,O:C(:O)C1:C:C(:C(:C:C:1N(:O):O)C12C3:C:C(:C(:C:C:3N(:O):O)C3(C4:C:C(:C(:C:C:4N(:O):O)C(:O):O)N(:O):O)C4:C:C(:C(:C:C:4N(:O):O)C4(C5:C:C(:C(:C:C:5N(:O):O)C(:O):O)N(:O):O)C5:C:C(:C(:C:C:5N(:O):O)C(C5:C:C(:C(:C:C:5N(:O):O)C(:O):O)N(:O):O)(C5:C:C(:C1:C:C:5N(:O):O)N(:O):O)C1:C:C(:C(:C:C:1N(:O):O)C1(C5:C:C(:C(:C:C:5N(:O):O)C(:O):O)N(:O):O)C5:C:C(:C(:C:C:5N(:O):O)C(C5:C:C(:C(:C:C:5N(:O):O)C(:O):O)N(:O):O)(C5:C:C(:C2:C:C:5N(:O):O)N(:O):O)C2:C:C(:C(:C:C:2N(:O):O)C(C2:C:C(:C(:C:C:2N(:O):O)C(:O):O)N(:O):O)(C2:C:C(:C3:C:C:2N(:O):O)N(:O):O)C2:C:C(:C(:C:C:2N(:O):O)C(C2:C:C(:C(:C:C:2N(:O):O)C(:O):O)N(:O):O)(C2:C:C(:C4:C:C:2N(:O):O)N(:O):O)C2:C:C(:C1:C:C:2N(:O):O)N(:O):O)N(:O):O)N(:O):O)N(:O):O)N(:O):O)N(:O):O)N(:O):O)N(:O):O)N(:O):O,1
SR_bbf_v1-4c_porphyrin_Ch_v2-4c_Cd_1_Ch_1B_2SH_Ch_1x2x2,0.0726,0.8286,0.433061,4634.02,2006.81,13.7637,9.99441,52903.3576,,,,1056,,128,128,128,C32Cd1H17N2O8S6,0.015384615,4,4c_Cd_1_Ch,"18,94",O:C(:O)C1:C:C(S):C(:C:C:1S)C(:O):O___O:C(:O)C1:C:C(S):C(:C:C:1S)C1:C2:C:C:C(:N:2):C(C2:C:C(S):C(:C:C:2S)C(:O):O):C2:C:C:C(:[NH]:2):C(C2:C:C(S):C(:C:C:2S)C(:O):O):C2:C:C:C(:N:2):C(C2:C:C(S):C(:C:C:2S)C(:O):O):C2:C:C:C:1:[NH]:2,1
SR_asv_v1-4c_V_1_Ch_v2-4c_bicyclooctane_Ch_1B_2CN_Ch_1x1x2,0.12749,0.81118,0.406366,3865.69,1570.89,20.39449,17.96336,31707.29274,,,,728,,36,32,32,C58H18N10O4V1,0.011111111,4,4c_V_1_Ch,360,N#CC1:C:C2C3=CC4(C=C5C6:C:C(C#N):C(:C:C:6C#N)C6=CC7(C=C8C9:C:C(C#N):C(:C:C:9C#N)C9=CC%10(C=C%11C%12:C:C(C#N):C(:C:C:%12C#N)C%12=CC%13(C=C(C:1:C:C:2C#N)C%12C(=C%13)C1:C:C(C#N):C(:C:C:1C#N)C1=CC2(C=C%12C%13:C:C(C#N):C(:C:C:%13C#N)C%13=CC%14(C=C(C%15:C:C(C#N):C(:C:C:%15C#N)C(=C4)C35)C%13C(=C%14)C3:C:C(C#N):C(:C:C:3C#N)C3=CC4(C=C(C5:C:C(C#N):C(:C:C:5C#N)C(=C7)C68)C3C(=C4)C3:C:C(C#N):C(:C:C:3C#N)C3=CC4(C=C(C5:C:C(C#N):C(:C:C:5C#N)C(=C%10)C%119)C3C(=C4)C3:C:C(C#N):C(:C:C:3C#N)C(=C2)C1%12)C1:C:C(C#N):C(:C:C:1C#N)C(:O):O)C1:C:C(C#N):C(:C:C:1C#N)C(:O):O)C1:C:C(C#N):C(:C:C:1C#N)C(:O):O)C1:C:C(C#N):C(:C:C:1C#N)C(:O):O)C1:C:C(C#N):C(:C:C:1C#N)C(:O):O)C1:C:C(C#N):C(:C:C:1C#N)C(:O):O)C1:C:C(C#N):C(:C:C:1C#N)C(:O):O)C1:C:C(C#N):C(:C:C:1C#N)C(:O):O,1
SR_ato_v1-4c_Cd_1_Ch_2B_2NO2_Ch_1x1x1,0.0331,0.91512,0.228494,5312.16,1213.8,38.52801,37.25973,288318.1387,,,,2484,,288,288,288,C28Cd1H8N8O24,0.014705882,4,4c_Cd_1_Ch,34,O:C(:O)C1:C:C(:C(:C:C:1N(:O):O)C1:C:C(:C(:C:C:1N(:O):O)C(:O):O)N(:O):O)N(:O):O,1
SR_bao_v1-4c_bicyclooctane_Ch_v2-4c_In_1_Ch_1B_2CH3_Ch_1x1x2,0.09653,0.83886,0.366114,4583.66,1678.14,19.88301,13.34553,45034.26762,,,,892,,96,96,96,C108H88In3O24,0.013636364,4,4c_In_1_Ch,"22,154",CC1:C:C(C(:O):O):C(C):C:C:1C(:O):O___CC1:C:C(C(:O):O):C(C):C:C:1C1=CC2(C=C(C3:C:C(C):C(:C:C:3C)C(:O):O)C1C(=C2)C1:C:C(C):C(:C:C:1C)C(:O):O)C1:C:C(C):C(:C:C:1C)C12C=C(C3:C:C(C):C(:C:C:3C)C(:O):O)C(C(=C1)C1:C:C(C):C(:C:C:1C)C(:O):O)C(=C2)C1:C:C(C):C(:C:C:1C)C(:O):O,1
SR_aww_v1-4c_In_1_Ch_v2-4c_1anC_Ch_ntn_edge_1B_2indole_Ch_1x1x2,0.093,0.8674,0.354952,3929.98,1394.95,27.29312,21.31167,90606.34841,,,,1584,,256,256,256,C49H24In2N8O16,0.020618557,4,4c_In_1_Ch,"100,24",O:C(:O)C1(C(:O):O)C2:C:C3:C:C4:[NH]:C(:C:C:4:C:C:3:[NH]:2)C(C(:O):O)(C(:O):O)C2:C:C3:C:C4:[NH]:C(:C:C:4:C:C:3:[NH]:2)C(C(:O):O)(C(:O):O)C2:C:C3:C:C4:[NH]:C(:C:C:4:C:C:3:[NH]:2)C(C(:O):O)(C(:O):O)C2:C:C3:C:C4:[NH]:C1:C:C:4:C:C:3:[NH]:2___O:C(:O)C1:C:C2:C:C3:[NH]:C(:C:C:3:C:C:2:[NH]:1)C(:O):O,1
SR_ato_v1-4c_In_1_Ch_3B_fused_8H_Ch_1x1x2,0.07195,0.93098,0.168878,5963.94,1007.18,40.06175,38.6483,525838.799,,,,4104,,576,576,576,C32H16In1O8,0.017857143,4,4c_In_1_Ch,28,O:C(:O)C1:C:C:C2:C(:C:C:C3:C:C(:C:C:C:3:2)C(:O):O):C:1,1
SR_bas_v1-4c_In_1_Ch_v2-4c_bicyclooctane_Ch_2B_2CH3_Ch_ntn_edge_1x1x1,0.06416,0.88254,0.2365,4315.52,1020.62,39.20382,20.58447,111588.1639,,,,1980,,96,96,96,C84H72In1O8,0.006097561,4,4c_In_1_Ch,,None,1
SR_bay_v1-4c_bicyclooctane_Ch_v2-4c_In_1_Ch_2TrU_Ch_1TrU_Ch_1DoU_Ch_1x1x1,0.10417,0.85382,0.432164,4352.81,1881.13,19.08488,12.76363,21130.56477,,,,296,,96,96,96,C37H10In3O24,0.042253521,4,4c_In_1_Ch,"8,70",O:C(:O)C#CC(:O):O___O:C(:O)C=CC1=CC2(C#CC#CC34C=C(C=CC(:O):O)C(C(C=CC(:O):O)=C3)C(C=CC(:O):O)=C4)C=C(C=CC(:O):O)C1C(C=CC(:O):O)=C2,1
SR_asv_v1-4c_V_1_Ch_v2-4c_1anC_Ch_ntn_edge_2B_2F_Ch_2x2x2,0.23895,0.65724,0.855305,1729.61,1479.34,13.38135,10.98242,51966.84744,,,,2208,,144,128,128,C40F12H12O4V1,0.014705882,4,4c_V_1_Ch,272,O:C(:O)C12C3:C:C(F):C(:C:C:3F)C3:C:C(F):C(:C:C:3F)C3(C(:O):O)C4:C:C(F):C(:C:C:4F)C4:C:C(F):C(:C:C:4F)C4(C(:O):O)C5:C:C(F):C(:C:C:5F)C5:C:C(F):C(:C:C:5F)C(C(:O):O)(C5:C:C(F):C(:C:C:5F)C5:C:C(F):C1:C:C:5F)C1:C:C(F):C(:C:C:1F)C1:C:C(F):C(:C:C:1F)C1(C(:O):O)C5:C:C(F):C(:C:C:5F)C5:C:C(F):C(:C:C:5F)C(C(:O):O)(C5:C:C(F):C(:C:C:5F)C5:C:C(F):C2:C:C:5F)C2:C:C(F):C(:C:C:2F)C2:C:C(F):C(:C:C:2F)C(C(:O):O)(C2:C:C(F):C(:C:C:2F)C2:C:C(F):C3:C:C:2F)C2:C:C(F):C(:C:C:2F)C2:C:C(F):C(:C:C:2F)C(C(:O):O)(C2:C:C(F):C(:C:C:2F)C2:C:C(F):C4:C:C:2F)C2:C:C(F):C(:C:C:2F)C2:C:C(F):C1:C:C:2F,1
SR_asv_v1-4c_Cu_1_Ch_v2-4c_bicyclooctane_Ch_1DoU_Ch_1B_4H_Ch_1x1x2,0.15313,0.82752,0.375685,4592.88,1725.48,19.91591,17.98289,22354.44904,,,,552,,36,32,32,C40Cu1H24O4,0.014705882,4,4c_Cu_1_Ch,272,O:C(:O)C=CC12C=C3C4:C:C:C(:C:C:4)C4=CC5(C=CC(:O):O)C=C6C7:C:C:C(:C:C:7)C7=CC8(C=CC(:O):O)C=C9C%10:C:C:C(:C:C:%10)C%10=CC%11(C=CC(:O):O)C=C%12C%13:C:C:C(:C:C:%13)C(=C1)C3C(=C2)C1:C:C:C(:C:C:1)C1=CC2(C=CC(:O):O)C=C3C%13:C:C:C(:C:C:%13)C%13=CC%14(C=CC(:O):O)C=C(C%15:C:C:C(:C:C:%15)C(=C5)C46)C%13C(=C%14)C4:C:C:C(:C:C:4)C4=CC5(C=CC(:O):O)C=C(C6:C:C:C(:C:C:6)C(=C8)C79)C4C(=C5)C4:C:C:C(:C:C:4)C4=CC5(C=CC(:O):O)C=C(C6:C:C:C(:C:C:6)C(=C%11)C%12%10)C4C(=C5)C4:C:C:C(:C:C:4)C(=C2)C13,1
SR_asv_v1-4c_V_1_Ch_v2-4c_bicyclooctane_Ch_1B_2NH2_Ch_1x1x2,0.13619,0.82726,0.366065,4104.09,1502.36,21.66476,19.45384,31566.86686,,,,808,,36,32,32,C48H38N10O4V1,0.01,4,4c_V_1_Ch,400,NC1:C:C2C3=CC4(C=C5C6:C:C(N):C(:C:C:6N)C6=CC7(C=C8C9:C:C(N):C(:C:C:9N)C9=CC%10(C=C%11C%12:C:C(N):C(:C:C:%12N)C%12=CC%13(C=C(C:1:C:C:2N)C%12C(=C%13)C1:C:C(N):C(:C:C:1N)C1=CC2(C=C%12C%13:C:C(N):C(:C:C:%13N)C%13=CC%14(C=C(C%15:C:C(N):C(:C:C:%15N)C(=C4)C35)C%13C(=C%14)C3:C:C(N):C(:C:C:3N)C3=CC4(C=C(C5:C:C(N):C(:C:C:5N)C(=C7)C68)C3C(=C4)C3:C:C(N):C(:C:C:3N)C3=CC4(C=C(C5:C:C(N):C(:C:C:5N)C(=C%10)C%119)C3C(=C4)C3:C:C(N):C(:C:C:3N)C(=C2)C1%12)C1:C:C(N):C(:C:C:1N)C(:O):O)C1:C:C(N):C(:C:C:1N)C(:O):O)C1:C:C(N):C(:C:C:1N)C(:O):O)C1:C:C(N):C(:C:C:1N)C(:O):O)C1:C:C(N):C(:C:C:1N)C(:O):O)C1:C:C(N):C(:C:C:1N)C(:O):O)C1:C:C(N):C(:C:C:1N)C(:O):O)C1:C:C(N):C(:C:C:1N)C(:O):O,1
SR_atn_v1-4c_Cd_1_Ch_2B_2F_Ch_1x1x1,0.03977,0.93522,0.175728,5666.18,995.706,39.5761,29.15706,111395.5559,,,,848,,128,128,128,C28Cd1F8H8O8,0.019230769,4,4c_Cd_1_Ch,26,O:C(:O)C1:C:C(F):C(:C:C:1F)C1:C:C(F):C(:C:C:1F)C(:O):O,1
SR_bbf_v1-4c_porphyrin_Ch_v2-4c_Cd_1_Ch_1DoU_Ch_1B_4H_Ch_1x2x2,0.11076,0.83846,0.40948,4996.77,2046.08,12.38252,9.62197,36974.86512,,,,768,,128,128,128,C24Cd1H13N2O8,0.021276596,4,4c_Cd_1_Ch,"16,62",O:C(:O)C1:C:C:C(:C:C:1)C(:O):O___O:C(:O)C=CC1:C2:C:C:C(:N:2):C(C=CC(:O):O):C2:C:C:C(:[NH]:2):C(C=CC(:O):O):C2:C:C:C(:N:2):C(C=CC(:O):O):C2:C:C:C:1:[NH]:2,1
SR_bbd_v1-4c_1anC_Ch_v2-4c_Cd_1_Ch_ntn_edge_1B_4Br_Ch_1x1x2,0.14432,0.65688,1.35842,975.981,1325.8,12.71533,10.77475,19183.25873,,,,592,,256,256,256,Br4C15Cd2O16,0.057142857,4,4c_Cd_1_Ch,"6,136",O:C(:O)C(:O):O___O:C(:O)C1(C(:O):O)C2:C(Br):C(Br):C(:C(Br):C:2Br)C(C(:O):O)(C(:O):O)C2:C(Br):C(Br):C(:C(Br):C:2Br)C(C(:O):O)(C(:O):O)C2:C(Br):C(Br):C(:C(Br):C:2Br)C(C(:O):O)(C(:O):O)C2:C(Br):C(Br):C(:C(Br):C:2Br)C(C(:O):O)(C(:O):O)C2:C(Br):C(Br):C(:C(Br):C:2Br)C(C(:O):O)(C(:O):O)C2:C(Br):C(Br):C(:C(Br):C:2Br)C(C(:O):O)(C(:O):O)C2:C(Br):C(Br):C(:C(Br):C:2Br)C(C(:O):O)(C(:O):O)C2:C(Br):C(Br):C1:C(Br):C:2Br,1
SR_asv_v1-4c_V_1_Ch_v2-4c_bicyclooctane_Ch_1B_4Br_Ch_1x1x2,0.0946,0.7623,0.954234,1464.5,1397.48,20.56342,18.4625,31987.23265,,,,648,,36,32,32,Br20C48H8O4V1,0.0125,4,4c_V_1_Ch,320,O:C(:O)C1:C(Br):C(Br):C(:C(Br):C:1Br)C12C=C3C4:C(Br):C(Br):C(C5=CC6(C=C7C8:C(Br):C(Br):C(C9=CC%10(C=C%11C%12:C(Br):C(Br):C(C%13=CC%14(C=C%15C%16:C(Br):C(Br):C(C(=C1)C3C(=C2)C1:C(Br):C(Br):C(C2=CC3(C=C%17C%18:C(Br):C(Br):C(C%19=CC%20(C=C(C%21:C(Br):C(Br):C(C(=C6)C57):C(Br):C:%21Br)C%19C(=C%20)C5:C(Br):C(Br):C(C6=CC7(C=C(C%19:C(Br):C(Br):C(C(=C%10)C9%11):C(Br):C:%19Br)C6C(=C7)C6:C(Br):C(Br):C(C7=CC9(C=C(C%10:C(Br):C(Br):C(C(=C%14)C%15%13):C(Br):C:%10Br)C7C(=C9)C7:C(Br):C(Br):C(C(=C3)C2%17):C(Br):C:7Br)C2:C(Br):C(Br):C(C(:O):O):C(Br):C:2Br):C(Br):C:6Br)C2:C(Br):C(Br):C(C(:O):O):C(Br):C:2Br):C(Br):C:5Br)C2:C(Br):C(Br):C(C(:O):O):C(Br):C:2Br):C(Br):C:%18Br)C2:C(Br):C(Br):C(C(:O):O):C(Br):C:2Br):C(Br):C:1Br):C(Br):C:%16Br)C1:C(Br):C(Br):C(C(:O):O):C(Br):C:1Br):C(Br):C:%12Br)C1:C(Br):C(Br):C(C(:O):O):C(Br):C:1Br):C(Br):C:8Br)C1:C(Br):C(Br):C(C(:O):O):C(Br):C:1Br):C(Br):C:4Br,1
SR_bat_v1-4c_In_1_Ch_v2-4c_1anC_Ch_ntn_edge_1B_2indole_Ch_1x1x1,0.06204,0.8989,0.255977,4107.55,1051.44,48.47585,25.75648,119180.6999,,,,1632,,192,192,192,C35H18In1N6O8,0.014925373,4,4c_In_1_Ch,,None,1
SR_aww_v1-4c_Cd_1_Ch_v2-4c_Cd_1_Ch_2B_4CN_Ch_ntn_edge_1x1x1,0.0254,0.90604,0.229924,4974.62,1143.78,39.90034,27.22895,151764.0818,,,,1432,,192,192,192,C112Cd3N40O24,0.017045455,4,4c_Cd_1_Ch,"34,6",N#CC1:C(C#N):C(:C(C#N):C(C#N):C:1C(:O):O)C1:C(C#N):C(C#N):C(C(:O):O):C(C#N):C:1C#N___O:C(:O)C(:O):O,1
SR_bao_v1-4c_1anC_Ch_v2-4c_In_1_Ch_4B_fused_8H_Ch_ntn_edge_1x1x2,0.17399,0.75536,0.599552,3873.37,2322.29,13.44861,7.64634,27002.50582,,,,740,,96,96,96,C110H48In3O24,0.016483516,4,4c_In_1_Ch,"6,164",O:C(:O)C(:O):O___O:C(:O)C1:C:C2:C:C:C3:C:C(:C:C4:C:C:C(:C:1):C:2:C:3:4)C(C1:C:C2:C:C:C3:C:C(:C:C4:C:C:C(:C:1):C:2:C:3:4)C(:O):O)(C1:C:C2:C:C:C3:C:C(:C:C4:C:C:C(:C:1):C:2:C:3:4)C(:O):O)C(C1:C:C2:C:C:C3:C:C(:C:C4:C:C:C(:C:1):C:2:C:3:4)C(:O):O)(C1:C:C2:C:C:C3:C:C(:C:C4:C:C:C(:C:1):C:2:C:3:4)C(:O):O)C1:C:C2:C:C:C3:C:C(:C:C4:C:C:C(:C:1):C:2:C:3:4)C(:O):O,1
SR_asv_v1-4c_Cu_1_Ch_v2-4c_1anC_Ch_ntn_edge_3B_fused_8H_Ch_1x1x2,0.29653,0.66778,0.71859,2062.43,1482.04,13.61105,11.41148,13021.18485,,,,600,,36,32,32,C46Cu1H24O4,0.013513514,4,4c_Cu_1_Ch,296,O:C(:O)C12C3:C:C:C4:C(:C:C:C5:C:C(:C:C:C:5:4)C4(C(:O):O)C5:C:C:C6:C(:C:C:C7:C:C(:C:C:C:7:6)C6(C(:O):O)C7:C:C:C8:C(:C:C:C9:C:C(:C:C:C:9:8)C(C(:O):O)(C8:C:C:C9:C(:C:C:C%10:C:C1:C:C:C:%10:9):C:8)C1:C:C:C8:C(:C:C:C9:C:C(:C:C:C:9:8)C8(C(:O):O)C9:C:C:C%10:C(:C:C:C%11:C:C(:C:C:C:%11:%10)C(C(:O):O)(C%10:C:C:C%11:C(:C:C:C%12:C:C2:C:C:C:%12:%11):C:%10)C2:C:C:C%10:C(:C:C:C%11:C:C(:C:C:C:%11:%10)C(C(:O):O)(C%10:C:C:C%11:C(:C:C:C%12:C:C4:C:C:C:%12:%11):C:%10)C4:C:C:C%10:C(:C:C:C%11:C:C(:C:C:C:%11:%10)C(C(:O):O)(C%10:C:C:C%11:C(:C:C:C%12:C:C6:C:C:C:%12:%11):C:%10)C6:C:C:C%10:C(:C:C:C%11:C:C8:C:C:C:%11:%10):C:6):C:4):C:2):C:9):C:1):C:7):C:5):C:3,1
SR_asv_v1-4c_V_1_Ch_v2-4c_1anC_Ch_ntn_edge_1B_2indole_Ch_2x2x2,0.39014,0.67472,0.757286,1428.16,1081.53,13.61761,10.02861,43898.50649,,,,2016,,144,128,128,C34H18N6O4V1,0.016129032,4,4c_V_1_Ch,248,O:C(:O)C12C3:C:C4:C:C5:[NH]:C(:C:C:5:C:C:4:[NH]:3)C3(C(:O):O)C4:C:C5:C:C6:[NH]:C(:C:C:6:C:C:5:[NH]:4)C4(C(:O):O)C5:C:C6:C:C7:[NH]:C(:C:C:7:C:C:6:[NH]:5)C(C(:O):O)(C5:C:C6:C:C7:[NH]:C1:C:C:7:C:C:6:[NH]:5)C1:C:C5:C:C6:[NH]:C(:C:C:6:C:C:5:[NH]:1)C1(C(:O):O)C5:C:C6:C:C7:[NH]:C(:C:C:7:C:C:6:[NH]:5)C(C(:O):O)(C5:C:C6:C:C7:[NH]:C2:C:C:7:C:C:6:[NH]:5)C2:C:C5:C:C6:[NH]:C(:C:C:6:C:C:5:[NH]:2)C(C(:O):O)(C2:C:C5:C:C6:[NH]:C3:C:C:6:C:C:5:[NH]:2)C2:C:C3:C:C5:[NH]:C(:C:C:5:C:C:3:[NH]:2)C(C(:O):O)(C2:C:C3:C:C5:[NH]:C4:C:C:5:C:C:3:[NH]:2)C2:C:C3:C:C4:[NH]:C1:C:C:4:C:C:3:[NH]:2,1
SR_bbe_v1-4c_Cu_1_Ch_v2-4c_bicyclooctane_Ch_2B_2NO2_Ch_2x2x1,0.07766,0.86808,0.326641,4681.29,1529.1,18.20536,15.29424,140920.8317,,,,2208,,144,128,128,C30Cu1H10N8O20,0.014705882,4,4c_Cu_1_Ch,"34,408",O:C(:O)C1:C:C(:C(:C:C:1N(:O):O)C1:C:C(:C(:C:C:1N(:O):O)C(:O):O)N(:O):O)N(:O):O___O:C(:O)C1:C:C(:C(:C:C:1N(:O):O)C1:C:C(:C(:C:C:1N(:O):O)C1=CC23C=C(C4:C:C(:C(:C:C:4N(:O):O)C4:C:C(:C(:C:C:4N(:O):O)C4=CC5(C=C(C6:C:C(:C(:C:C:6N(:O):O)C6:C:C(:C(:C:C:6N(:O):O)C(:O):O)N(:O):O)N(:O):O)C4C(=C5)C4:C:C(:C(:C:C:4N(:O):O)C4:C:C(:C(:C:C:4N(:O):O)C(:O):O)N(:O):O)N(:O):O)C4:C:C(:C(:C:C:4N(:O):O)C4:C:C(:C(:C:C:4N(:O):O)C45C=C(C6:C:C(:C(:C:C:6N(:O):O)C6:C:C(:C(:C:C:6N(:O):O)C6=CC7(C=C(C8:C:C(:C(:C:C:8N(:O):O)C8:C:C(:C(:C:C:8N(:O):O)C(:O):O)N(:O):O)N(:O):O)C6C(=C7)C6:C:C(:C(:C:C:6N(:O):O)C6:C:C(:C(:C:C:6N(:O):O)C(:O):O)N(:O):O)N(:O):O)C6:C:C(:C(:C:C:6N(:O):O)C6:C:C(:C2:C:C:6N(:O):O)N(:O):O)N(:O):O)N(:O):O)N(:O):O)C(C(=C4)C2:C:C(:C(:C:C:2N(:O):O)C2:C:C(:C(:C:C:2N(:O):O)C(:O):O)N(:O):O)N(:O):O)C(=C5)C2:C:C(:C(:C:C:2N(:O):O)C2:C:C(:C(:C:C:2N(:O):O)C(:O):O)N(:O):O)N(:O):O)N(:O):O)N(:O):O)N(:O):O)N(:O):O)C1C(=C3)C1:C:C(:C(:C:C:1N(:O):O)C1:C:C(:C(:C:C:1N(:O):O)C(:O):O)N(:O):O)N(:O):O)N(:O):O)N(:O):O,1
SR_bay_v1-4c_bicyclooctane_Ch_v2-4c_Cd_1_Ch_1TrU_Ch_1x1x1,0.08918,0.86328,0.404739,4729.39,1914.17,18.80588,12.91317,22023.60948,,,,268,,96,96,96,C36Cd3H4O24,0.046875,4,4c_Cd_1_Ch,"8,56",O:C(:O)C#CC(:O):O___O:C(:O)C#CC1=CC2(C#CC34C=C(C#CC(:O):O)C(C(C#CC(:O):O)=C3)C(C#CC(:O):O)=C4)C=C(C#CC(:O):O)C1C(C#CC(:O):O)=C2,1
SR_asv_v1-4c_Ni_1_Ch_v2-4c_bicyclooctane_Ch_ntn_edge_1B_2CH3_Ch_2x2x2,0.19799,0.77874,0.478326,3782.66,1809.34,15.94043,13.27859,61685.08257,,,,2016,,144,128,128,C34H24Ni1O4,0.016129032,4,4c_Ni_1_Ch,248,CC1:C:C(:C(C):C:C:1C(:O):O)C12C=C3C4=CC5(C=C6C7=CC8(C=C9C%10=CC%11(C=C%12C(=C1)C3C(=C2)C1=CC2(C=C3C%13=CC%14(C=C(C(=C5)C46)C%13C(=C%14)C4=CC5(C=C(C(=C8)C79)C4C(=C5)C4=CC5(C=C(C(=C%11)C%12%10)C4C(=C5)C(=C2)C13)C1:C:C(C):C(:C:C:1C)C(:O):O)C1:C:C(C):C(:C:C:1C)C(:O):O)C1:C:C(C):C(:C:C:1C)C(:O):O)C1:C:C(C):C(:C:C:1C)C(:O):O)C1:C:C(C):C(:C:C:1C)C(:O):O)C1:C:C(C):C(:C:C:1C)C(:O):O)C1:C:C(C):C(:C:C:1C)C(:O):O,1
SR_bbc_v1-4c_bicyclooctane_Ch_v2-4c_In_1_Ch_1DoU_Ch_1B_4H_Ch_ntn_edge_2x2x2,0.11612,0.80368,0.572275,3199.35,1830.91,15.30752,10.24404,75297.1432,,,,1792,,512,512,512,C13H6In1O8,0.037037037,4,4c_In_1_Ch,"6,144",O:C(:O)C(:O):O___O:C(:O)C=CC1=CC2(C=CC(:O):O)C=C3C4:C:C:C(:C:C:4)C4=CC5(C=CC(:O):O)C=C(C=CC(:O):O)C4C(=C5)C4:C:C:C(:C:C:4)C4=CC5(C=CC(:O):O)C=C(C=CC(:O):O)C4C(=C5)C4:C:C:C(:C:C:4)C4=CC5(C=CC(:O):O)C=C(C=CC(:O):O)C4C(=C5)C4:C:C:C(:C:C:4)C(=C2)C13,1
SR_bap_v1-4c_bicyclooctane_Ch_v2-4c_In_1_Ch_1DoU_Ch_ntn_edge_1TrU_Ch_2x2x1,0.08762,0.85414,0.470195,2962.18,1392.8,23.34084,16.99201,139841.8068,,,,1888,,768,768,768,C27H5In3O24,0.053571429,4,4c_In_1_Ch,"58,6",O:C(:O)C#CC1=CC2(C=CC34C=C(C#CC(:O):O)C(C(C#CC(:O):O)=C3)C(C#CC(:O):O)=C4)C=C(C#CC(:O):O)C1C(C#CC(:O):O)=C2___O:C(:O)C(:O):O,1
SR_bbf_v1-4c_porphyrin_Ch_v2-4c_In_1_Ch_2B_fused_Ch_ntn_edge_2x2x2,0.17759,0.75378,0.656383,3445.37,2261.48,9.50171,7.35232,46163.25493,,,,1472,,256,256,256,C24H11In1N2O8,0.022222222,4,4c_In_1_Ch,"46,22",O:C(:O)C1:C2:C:C:C(:N:2):C(C(:O):O):C2:C:C:C(:[NH]:2):C(C(:O):O):C2:C:C:C(:N:2):C(C(:O):O):C2:C:C:C:1:[NH]:2___O:C(:O)C1:C:C:C2:C:C(:C:C:C:2:C:1)C(:O):O,1
SR_bbe_v1-4c_Cu_1_Ch_v2-4c_bicyclooctane_Ch_1B_2CN_Ch_ntn_edge_2x3x1,0.20267,0.73582,0.654163,2726.08,1783.3,10.70278,10.08141,47644.69137,,,,1488,,216,192,192,C18Cu1H5N3O4,0.033333333,4,4c_Cu_1_Ch,"216,6",N#CC1:C:C2C3=CC4(C=C(C5:C:C(C#N):C(:C:C:5C#N)C(:O):O)C3C(=C4)C3:C:C(C#N):C(:C:C:3C#N)C(:O):O)C3:C:C(C#N):C(:C:C:3C#N)C34C=C(C5:C:C(C#N):C(:C:C:5C#N)C5=CC6(C=C(C7:C:C(C#N):C(:C:C:7C#N)C(:O):O)C5C(=C6)C5:C:C(C#N):C(:C:C:5C#N)C(:O):O)C5:C:C(C#N):C(:C:C:5C#N)C56C=C(C:1:C:C:2C#N)C(C(=C5)C1:C:C(C#N):C(:C:C:1C#N)C(:O):O)C(=C6)C1:C:C(C#N):C(:C:C:1C#N)C(:O):O)C(C(=C3)C1:C:C(C#N):C(:C:C:1C#N)C(:O):O)C(=C4)C1:C:C(C#N):C(:C:C:1C#N)C(:O):O___O:C(:O)C(:O):O,1
SR_asv_v1-4c_Cu_1_Ch_v2-4c_bicyclooctane_Ch_1B_2furan_Ch_1x1x1,0.09497,0.91966,0.17912,5928.93,1061.99,36.11835,31.31505,41997.10669,,,,444,,18,16,16,C68Cu1H28O14,0.009090909,4,4c_Cu_1_Ch,440,O:C(:O)C1:C:C2:C:C3:O:C(:C:C:3:C:C:2:O:1)C12C=C3C4:C:C5:C:C6:O:C(:C:C:6:C:C:5:O:4)C4=CC5(C=C6C7:C:C8:C:C9:O:C(:C:C:9:C:C:8:O:7)C7=CC8(C=C9C%10:C:C%11:C:C%12:O:C(:C:C:%12:C:C:%11:O:%10)C%10=CC%11(C=C%12C%13:C:C%14:C:C%15:O:C(:C:C:%15:C:C:%14:O:%13)C(=C1)C3C(=C2)C1:C:C2:C:C3:O:C(:C:C:3:C:C:2:O:1)C1=CC2(C=C3C%13:C:C%14:C:C%15:O:C(:C:C:%15:C:C:%14:O:%13)C%13=CC%14(C=C(C%15:C:C%16:C:C%17:O:C(:C:C:%17:C:C:%16:O:%15)C(=C5)C46)C%13C(=C%14)C4:C:C5:C:C6:O:C(:C:C:6:C:C:5:O:4)C4=CC5(C=C(C6:C:C%13:C:C%14:O:C(:C:C:%14:C:C:%13:O:6)C(=C8)C79)C4C(=C5)C4:C:C5:C:C6:O:C(:C:C:6:C:C:5:O:4)C4=CC5(C=C(C6:C:C7:C:C8:O:C(:C:C:8:C:C:7:O:6)C(=C%11)C%12%10)C4C(=C5)C4:C:C5:C:C6:O:C(:C:C:6:C:C:5:O:4)C(=C2)C13)C1:C:C2:C:C3:O:C(:C:C:3:C:C:2:O:1)C(:O):O)C1:C:C2:C:C3:O:C(:C:C:3:C:C:2:O:1)C(:O):O)C1:C:C2:C:C3:O:C(:C:C:3:C:C:2:O:1)C(:O):O)C1:C:C2:C:C3:O:C(:C:C:3:C:C:2:O:1)C(:O):O)C1:C:C2:C:C3:O:C(:C:C:3:C:C:2:O:1)C(:O):O)C1:C:C2:C:C3:O:C(:C:C:3:C:C:2:O:1)C(:O):O)C1:C:C2:C:C3:O:C(:C:C:3:C:C:2:O:1)C(:O):O,1
SR_bao_v1-4c_bicyclooctane_Ch_v2-4c_In_1_Ch_1B_2indole_Ch_ntn_edge_1x1x1,0.11927,0.87572,0.312683,5213.98,1630.32,23.94641,14.29574,26725.87501,,,,378,,48,48,48,C98H50In3N14O24,0.016129032,4,4c_In_1_Ch,"6,168",O:C(:O)C(:O):O___O:C(:O)C1:C:C2:C:C3:[NH]:C(:C:C:3:C:C:2:[NH]:1)C1=CC2(C=C(C3:C:C4:C:C5:[NH]:C(:C:C:5:C:C:4:[NH]:3)C(:O):O)C1C(=C2)C1:C:C2:C:C3:[NH]:C(:C:C:3:C:C:2:[NH]:1)C(:O):O)C1:C:C2:C:C3:[NH]:C(:C:C:3:C:C:2:[NH]:1)C12C=C(C3:C:C4:C:C5:[NH]:C(:C:C:5:C:C:4:[NH]:3)C(:O):O)C(C(=C1)C1:C:C3:C:C4:[NH]:C(:C:C:4:C:C:3:[NH]:1)C(:O):O)C(=C2)C1:C:C2:C:C3:[NH]:C(:C:C:3:C:C:2:[NH]:1)C(:O):O,1
SR_aww_v1-4c_bicyclooctane_Ch_v2-4c_In_1_Ch_2B_2Br_Ch_ntn_edge_1x1x2,0.08673,0.82996,0.582937,2683.84,1564.51,26.26431,21.4394,107666.4883,,,,1872,,128,128,128,Br16C68H24In1O8,0.00862069,4,4c_In_1_Ch,,None,1
SR_bay_v1-4c_bicyclooctane_Ch_v2-4c_Cd_1_Ch_1DoU_Ch_1B_4H_Ch_1TrU_Ch_1x1x1,0.10483,0.86082,0.403223,4623.04,1864.12,19.07152,12.71907,22704.10164,,,,308,,96,96,96,C38Cd3H12O24,0.040540541,4,4c_Cd_1_Ch,"8,76",O:C(:O)C#CC(:O):O___O:C(:O)C=CC1=CC2(C=C(C=CC(:O):O)C1C(C=CC(:O):O)=C2)C1:C:C:C(:C:C:1)C12C=C(C=CC(:O):O)C(C(C=CC(:O):O)=C1)C(C=CC(:O):O)=C2,1
SR_ato_v1-4c_Cd_1_Ch_1B_2NO2_Ch_1x1x2,0.05254,0.86258,0.386127,4655.15,1797.48,25.75928,24.21142,221492.0895,,,,2952,,576,576,576,C16Cd1H4N4O16,0.025,4,4c_Cd_1_Ch,20,O:C(:O)C1:C:C(:C(:C:C:1N(:O):O)C(:O):O)N(:O):O,1
SR_bao_v1-4c_1anC_Ch_v2-4c_In_1_Ch_2B_2OH_Ch_1x1x1,0.05695,0.89974,0.242085,5302.57,1283.67,27.14088,18.53007,48638.09236,,,,562,,48,48,48,C134H80In3O64,0.010791367,4,4c_In_1_Ch,"30,188",O:C(:O)C1:C:C(O):C(:C:C:1O)C1:C:C(O):C(:C:C:1O)C(:O):O___O:C(:O)C1:C:C(O):C(:C:C:1O)C1:C:C(O):C(:C:C:1O)C(C1:C:C(O):C(:C:C:1O)C1:C:C(O):C(:C:C:1O)C(:O):O)(C1:C:C(O):C(:C:C:1O)C1:C:C(O):C(:C:C:1O)C(:O):O)C1:C:C(O):C(:C:C:1O)C1:C:C(O):C(:C:C:1O)C(C1:C:C(O):C(:C:C:1O)C1:C:C(O):C(:C:C:1O)C(:O):O)(C1:C:C(O):C(:C:C:1O)C1:C:C(O):C(:C:C:1O)C(:O):O)C1:C:C(O):C(:C:C:1O)C1:C:C(O):C(:C:C:1O)C(:O):O,1