name,k,VF,density,ASA_grav,ASA_vol,LPD,PLD,volume,,,,N_atoms,,N_metal_containing_bonds,N_metal_nonmetal_bonds,N_metal_linker_bonds,formula,metal_nonmetal_ratio,metal_node_connectivity,metal_node_name,N_atoms_per_linker,linker_SMILES,N_ccs
SR_dpd_v1-4c_bicyclooctane_Ch_v2-4c_V_1_Ch_v3-4c_bicyclooctane_Ch_1B_2DoU_Ch_1x1x1,0.06709,0.93498,0.131778,7405.51,975.886,37.27714,21.64675,341257.8024,,,,3120,,216,192,192,C106H74O12V3,0.015625,4,4c_V_1_Ch,384,O:C(:O)C=CC1:C:C:C(C=CC2=CC3(C=CC4:C:C:C(C=CC5=CC6(C=CC7:C:C:C(C=CC89C=C(C=CC%10:C:C:C(C=CC(:O):O):C:C:%10)C(C(C=CC%10:C:C:C(C=CC(:O):O):C:C:%10)=C8)C(C=CC8:C:C:C(C=CC(:O):O):C:C:8)=C9):C:C:7)C=C(C=CC7:C:C:C(C=CC89C=C(C=CC%10:C:C:C(C=CC(:O):O):C:C:%10)C(C(C=CC%10:C:C:C(C=CC(:O):O):C:C:%10)=C8)C(C=CC8:C:C:C(C=CC(:O):O):C:C:8)=C9):C:C:7)C5C(C=CC5:C:C:C(C=CC78C=C(C=CC9:C:C:C(C=CC(:O):O):C:C:9)C(C(C=CC9:C:C:C(C=CC(:O):O):C:C:9)=C7)C(C=CC7:C:C:C(C=CC(:O):O):C:C:7)=C8):C:C:5)=C6):C:C:4)C=C(C=CC4:C:C:C(C=CC(:O):O):C:C:4)C2C(C=CC2:C:C:C(C=CC(:O):O):C:C:2)=C3):C:C:1,1
SR_dpa_v1-3c_B_Ch_v2-3c_B_Ch_v3-6c_Mg_1_Ch_ntn_edge_1B_2NO2_Ch_1x1x1,0.5988,0.59762,0.936679,1191.65,1116.19,7.05674,3.99008,41940.69841,,,,2016,,480,480,192,C9H4Mg1N1O6,0.05,6,6c_Mg_1_Ch,96,O:C(:O)C1:C:C(:C:C(:C:1)C1:C:C(:C(:C:C:1N(:O):O)C1:C:C(:C:C(:C:1)C1:C:C(:C(:C:C:1N(:O):O)C1:C:C(:C:C(:C:1)C(:O):O)C(:O):O)N(:O):O)C1:C:C(:C(:C:C:1N(:O):O)C1:C:C(:C:C(:C:1)C(:O):O)C(:O):O)N(:O):O)N(:O):O)C(:O):O,1
SR_dnj_v1-8c_Co_1_Ch_v2-6c_B_Ch_v3-3c_pyrrole_Ch_1B_2Br_Ch_1x1x1,0.12461,0.73784,0.905076,1440.44,1303.71,20.24897,13.5364,40905.81731,,,,1086,,120,120,96,Br24C100Co4H32N4O17,0.02259887,8,8c_Co_1_Ch,264,O:C(:O)C1:C:C(Br):C(:C:C:1Br)C1:C:C:C(C2:C:C(Br):C(:C:C:2Br)C(:O):O):N:1C1:C:C(Br):C(:C:C:1Br)C1:C(C2:C:C(Br):C(:C:C:2Br)N2:C(:C:C:C:2C2:C:C(Br):C(:C:C:2Br)C(:O):O)C2:C:C(Br):C(:C:C:2Br)C(:O):O):C(C2:C:C(Br):C(:C:C:2Br)N2:C(:C:C:C:2C2:C:C(Br):C(:C:C:2Br)C(:O):O)C2:C:C(Br):C(:C:C:2Br)C(:O):O):C(C2:C:C(Br):C(:C:C:2Br)N2:C(:C:C:C:2C2:C:C(Br):C(:C:C:2Br)C(:O):O)C2:C:C(Br):C(:C:C:2Br)C(:O):O):C(C2:C:C(Br):C(:C:C:2Br)N2:C(:C:C:C:2C2:C:C(Br):C(:C:C:2Br)C(:O):O)C2:C:C(Br):C(:C:C:2Br)C(:O):O):C:1C1:C:C(Br):C(:C:C:1Br)N1:C(:C:C:C:1C1:C:C(Br):C(:C:C:1Br)C(:O):O)C1:C:C(Br):C(:C:C:1Br)C(:O):O,1
SR_eft_v1-4c_porphyrin_Ch_v2-8c_Zr_1_Ch_v3-3c_pyrrole_Ch_ntn_edge_1B_4F_Ch_2x2x2,0.13038,0.67562,0.900705,1987.5,1790.15,8.99617,7.10539,44710.49935,,,,1632,,384,384,128,C46F16H17N4O16Zr3,0.03030303,8,8c_Zr_1_Ch,166,O:C(:O)C1:C(F):C(F):C(:C(F):C:1F)C1:C:C:C(C2:C3:C:C:C(:N:3):C(C3:C:C:C(C4:C(F):C(F):C(C(:O):O):C(F):C:4F):N:3C3:C(F):C(F):C(C(:O):O):C(F):C:3F):C3:C:C:C(:[NH]:3):C(C3:C:C:C(C4:C(F):C(F):C(C(:O):O):C(F):C:4F):N:3C3:C(F):C(F):C(C(:O):O):C(F):C:3F):C3:C:C:C(:N:3):C(C3:C:C:C(C4:C(F):C(F):C(C(:O):O):C(F):C:4F):N:3C3:C(F):C(F):C(C(:O):O):C(F):C:3F):C3:C:C:C:2:[NH]:3):N:1C1:C(F):C(F):C(C(:O):O):C(F):C:1F,1
SR_dnl_v1-4c_porphyrin_Ch_v2-6c_CdZn_1_Ch_v3-3c_triazine_Ch_1B_2OH_Ch_ntn_edge_1x1x1,0.14655,0.66844,0.84924,1905.88,1618.55,11.46886,6.88819,75284.17759,,,,3344,,256,256,192,C108Cd3H54N18O25Zn1,0.019512195,6,6c_CdZn_1_Ch,"408,408",O:C(:O)C1:C2:C:C:C(:N:2):C2C3:C:C(O):C(:C:C:3O)C3:N:C4:N:C(:N:3)C3:C:C(O):C(:C:C:3O)C3:C5:C:C:C(:N:5):C(C(:O):O):C5:C:C:C(:[NH]:5):C(C(:O):O):C5:C:C:C(:N:5):C(C5:C:C(O):C(:C:C:5O)C5:N:C6:N:C(:N:5)C5:C:C(O):C(:C:C:5O)C5:C7:C:C:C(:N:7):C(C(:O):O):C7:C:C:C(:[NH]:7):C(C(:O):O):C7:C:C:C(:N:7):C(C7:C:C(O):C(:C:C:7O)C7:N:C(:N:C(:N:7)C7:C:C(O):C(:C:C:7O)C7:C8:C:C:C(:N:8):C(C(:O):O):C8:C:C:C(:[NH]:8):C(C(:O):O):C8:C:C:C(:N:8):C(C8:C:C(O):C(:C:C:8O)C8:N:C(:N:C(:N:8)C8:C:C(O):C(:C:C:8O)C8:C9:C:C:C(:N:9):C(C(:O):O):C9:C:C:C(:[NH]:9):C(C(:O):O):C9:C:C:C(:N:9):C(C9:C:C(O):C6:C:C:9O):C6:C:C:C:8:[NH]:6)C6:C:C(O):C(:C:C:6O)C(:C6:C:C:C(:N:6):C(C(:O):O):C6:C:C:C:1:[NH]:6):C1:C:C:C:2:[NH]:1):C1:C:C:C:7:[NH]:1)C1:C:C(O):C(:C:C:1O)C1:C2:C:C:C(:N:2):C(C(:O):O):C2:C:C:C(:[NH]:2):C(C(:O):O):C2:C:C:C(:N:2):C(C2:C:C(O):C4:C:C:2O):C2:C:C:C:1:[NH]:2):C1:C:C:C:5:[NH]:1):C1:C:C:C:3:[NH]:1___O:C(:O)C1:C2:C:C:C(:N:2):C2C3:C:C(O):C(:C:C:3O)C3:N:C4:N:C(:N:3)C3:C:C(O):C(:C:C:3O)C3:C5:C:C:C(:N:5):C(C(:O):O):C5:C:C:C(:[NH]:5):C(C(:O):O):C5:C:C:C(:N:5):C(C5:C:C(O):C(:C:C:5O)C5:N:C6:N:C(:N:5)C5:C:C(O):C(:C:C:5O)C5:C7:C:C:C(:N:7):C(C(:O):O):C7:C:C:C(:[NH]:7):C(C(:O):O):C7:C:C:C(:N:7):C(C7:C:C(O):C(:C:C:7O)C7:N:C(:N:C(:N:7)C7:C:C(O):C(:C:C:7O)C7:C8:C:C:C(:N:8):C(C(:O):O):C8:C:C:C(:[NH]:8):C(C(:O):O):C8:C:C:C(:N:8):C(C8:C:C(O):C(:C:C:8O)C8:N:C(:N:C(:N:8)C8:C:C(O):C(:C:C:8O)C8:C9:C:C:C(:N:9):C(C(:O):O):C9:C:C:C(:[NH]:9):C(C(:O):O):C9:C:C:C(:N:9):C(C9:C:C(O):C6:C:C:9O):C6:C:C:C:8:[NH]:6)C6:C:C(O):C(:C:C:6O)C6:C8:C:C:C(:N:8):C(C8:C:C(O):C4:C:C:8O):C4:C:C:C(:[NH]:4):C(C(:O):O):C4:C:C:C(:N:4):C(C(:O):O):C4:C:C:C:6:[NH]:4):C4:C:C:C:7:[NH]:4)C4:C:C(O):C(:C:C:4O)C(:C4:C:C:C(:N:4):C(C(:O):O):C4:C:C:C:1:[NH]:4):C1:C:C:C:2:[NH]:1):C1:C:C:C:5:[NH]:1):C1:C:C:C:3:[NH]:1,1
SR_dnj_v1-8c_Co_1_Ch_v2-6c_B_Ch_v3-3c_triazine_Ch_1B_2thiophene_Ch_1x1x1,0.06127,0.90756,0.231164,4338.45,1002.89,38.75955,28.68582,138935.0591,,,,1494,,120,120,96,C144Co4H48N12O17S24,0.016326531,8,8c_Co_1_Ch,366,O:C(:O)C1:C:C2:C:C3:S:C(:C:C:3:C:C:2:S:1)C1:N:C(:N:C(:N:1)C1:C:C2:C:C3:S:C(:C:C:3:C:C:2:S:1)C1:C(C2:C:C3:C:C4:S:C(:C:C:4:C:C:3:S:2)C2:N:C(:N:C(:N:2)C2:C:C3:C:C4:S:C(:C:C:4:C:C:3:S:2)C(:O):O)C2:C:C3:C:C4:S:C(:C:C:4:C:C:3:S:2)C(:O):O):C(C2:C:C3:C:C4:S:C(:C:C:4:C:C:3:S:2)C2:N:C(:N:C(:N:2)C2:C:C3:C:C4:S:C(:C:C:4:C:C:3:S:2)C(:O):O)C2:C:C3:C:C4:S:C(:C:C:4:C:C:3:S:2)C(:O):O):C(C2:C:C3:C:C4:S:C(:C:C:4:C:C:3:S:2)C2:N:C(:N:C(:N:2)C2:C:C3:C:C4:S:C(:C:C:4:C:C:3:S:2)C(:O):O)C2:C:C3:C:C4:S:C(:C:C:4:C:C:3:S:2)C(:O):O):C(C2:C:C3:C:C4:S:C(:C:C:4:C:C:3:S:2)C2:N:C(:N:C(:N:2)C2:C:C3:C:C4:S:C(:C:C:4:C:C:3:S:2)C(:O):O)C2:C:C3:C:C4:S:C(:C:C:4:C:C:3:S:2)C(:O):O):C:1C1:C:C2:C:C3:S:C(:C:C:3:C:C:2:S:1)C1:N:C(:N:C(:N:1)C1:C:C2:C:C3:S:C(:C:C:3:C:C:2:S:1)C(:O):O)C1:C:C2:C:C3:S:C(:C:C:3:C:C:2:S:1)C(:O):O)C1:C:C2:C:C3:S:C(:C:C:3:C:C:2:S:1)C(:O):O,1
SR_epc_v1-6c_Al_1_Ch_v2-4c_1anC_Ch_v3-4c_B_Ch_2B_2Br_Ch_1x1x1,0.09955,0.82196,0.618194,2494.29,1541.96,25.29264,15.28015,69791.21533,,,,1204,,120,120,96,Al6Br48C169H52O26,0.020338983,6,6c_Al_1_Ch,"93,100",O:C(:O)C1:C:C(Br):C(:C:C:1Br)C1:C:C(Br):C(:C:C:1Br)C(C1:C:C(Br):C(:C:C:1Br)C1:C:C(Br):C(:C:C:1Br)C(:O):O)(C1:C:C(Br):C(:C:C:1Br)C1:C:C(Br):C(:C:C:1Br)C(:O):O)C1:C:C(Br):C(:C:C:1Br)C1:C:C(Br):C(:C:C:1Br)C(:O):O___O:C(:O)C1:C:C(Br):C(:C:C:1Br)C1:C:C(Br):C(:C:C:1Br)C1:C:C(C2:C:C(Br):C(:C:C:2Br)C2:C:C(Br):C(:C:C:2Br)C(:O):O):C(:C:C:1C1:C:C(Br):C(:C:C:1Br)C1:C:C(Br):C(:C:C:1Br)C(:O):O)C1:C:C(Br):C(:C:C:1Br)C1:C:C(Br):C(:C:C:1Br)C(:O):O,1
SR_dpd_v1-4c_1anC_Ch_v2-4c_V_1_Ch_v3-4c_1anC_Ch_1B_2NO2_Ch_ntn_edge_1x1x1,0.2497,0.5479,1.32065,0,0,10.99927,3.49038,15673.99131,,,,824,,216,192,192,C41H8N8O40V6,0.06185567,4,4c_V_1_Ch,97,O:C(:O)C(C(:O):O)(C(:O):O)C1:C:C(:C(:C:C:1N(:O):O)C(C1:C:C(:C(:C:C:1N(:O):O)C(C(:O):O)(C(:O):O)C(:O):O)N(:O):O)(C1:C:C(:C(:C:C:1N(:O):O)C(C(:O):O)(C(:O):O)C(:O):O)N(:O):O)C1:C:C(:C(:C:C:1N(:O):O)C(C(:O):O)(C(:O):O)C(:O):O)N(:O):O)N(:O):O,1
SR_ecn_v1-8c_Co_1_Ch_1B_2SH_Ch_1x1x2,0.24262,0.52772,1.32817,0,0,6.50322,3.23792,59752.21311,,,,2772,,720,720,576,C32Co4H16O17S8,0.054794521,8,8c_Co_1_Ch,18,O:C(:O)C1:C:C(S):C(:C:C:1S)C(:O):O,1
SR_epp_v1-4c_ethene_Ch_v2-3c_B_Ch_v3-6c_Mg_1_Ch_1B_2NH2_Ch_1x1x1,0.09598,0.842,0.3299,4095.24,1351.02,32.94345,15.06056,125355.8494,,,,2880,,240,240,96,C27H22Mg1N6O4,0.016949153,6,6c_Mg_1_Ch,,None,1
SR_dnl_v1-4c_porphyrin_Ch_v2-6c_CdZn_1_Ch_v3-3c_triazine_Ch_1B_2CH3_Ch_1x1x1,0.10421,0.791,0.465361,4421.36,2057.53,15.73971,8.89411,171719.7091,,,,5264,,256,256,192,C168Cd3H126N18O13Zn1,0.012307692,6,6c_CdZn_1_Ch,,None,1
SR_dme_v1-4c_In_1_Ch_v2-3c_pyrrole_Ch_2B_2OH_Ch_1x1x1,0.04009,0.92582,0.179233,5852.55,1048.97,28.53843,24.61788,73023.25338,,,,660,,64,64,64,C78H46In2N1O38,0.012269939,4,4c_In_1_Ch,"30,146",O:C(:O)C1:C:C(O):C(:C:C:1O)C1:C:C(O):C(:C:C:1O)C(:O):O___O:C(:O)C1:C:C(O):C(:C:C:1O)C1:C:C(O):C(:C:C:1O)C1:C:C:C(C2:C:C(O):C(:C:C:2O)C2:C:C(O):C(:C:C:2O)C2:C:C:C(C3:C:C(O):C(:C:C:3O)C3:C:C(O):C(:C:C:3O)C(:O):O):N:2C2:C:C(O):C(:C:C:2O)C2:C:C(O):C(:C:C:2O)C(:O):O):N:1C1:C:C(O):C(:C:C:1O)C1:C:C(O):C(:C:C:1O)C(:O):O,1
SR_epa_v1-6c_Mg_1_Ch_v2-6c_B_Ch_v3-4c_B_Ch_2B_2NO2_Ch_1x1x1,0.21962,0.78806,0.501667,3403.26,1707.31,21.2647,9.5713,95367.62314,,,,2034,,270,270,108,C46H16Mg3N12O36,0.027272727,6,6c_Mg_1_Ch,"192,132",O:C(:O)C1:C:C(:C(:C:C:1N(:O):O)C1:C:C(:C(:C:C:1N(:O):O)C1:C(C2:C:C(:C(:C:C:2N(:O):O)C2:C:C(:C(:C:C:2N(:O):O)C(:O):O)N(:O):O)N(:O):O):C(C2:C:C(:C(:C:C:2N(:O):O)C2:C:C(:C(:C:C:2N(:O):O)C(:O):O)N(:O):O)N(:O):O):C(C2:C:C(:C(:C:C:2N(:O):O)C2:C:C(:C(:C:C:2N(:O):O)C(:O):O)N(:O):O)N(:O):O):C(C2:C:C(:C(:C:C:2N(:O):O)C2:C:C(:C(:C:C:2N(:O):O)C(:O):O)N(:O):O)N(:O):O):C:1C1:C:C(:C(:C:C:1N(:O):O)C1:C:C(:C(:C:C:1N(:O):O)C(:O):O)N(:O):O)N(:O):O)N(:O):O)N(:O):O___O:C(:O)C1:C:C(:C(:C:C:1N(:O):O)C1:C:C(:C(:C:C:1N(:O):O)C1:C:C(:C(:C:C:1C1:C:C(:C(:C:C:1N(:O):O)C1:C:C(:C(:C:C:1N(:O):O)C(:O):O)N(:O):O)N(:O):O)C1:C:C(:C(:C:C:1N(:O):O)C1:C:C(:C(:C:C:1N(:O):O)C(:O):O)N(:O):O)N(:O):O)C1:C:C(:C(:C:C:1N(:O):O)C1:C:C(:C(:C:C:1N(:O):O)C(:O):O)N(:O):O)N(:O):O)N(:O):O)N(:O):O,1
SR_dnj_v1-8c_Co_1_Ch_v2-6c_B_Ch_v3-3c_B_Ch_2B_2NH2_Ch_1x1x1,0.0698,0.89206,0.233343,4591.83,1071.47,37.84975,26.85857,149416.0268,,,,2430,,120,120,96,C180Co4H156N48O17,0.009975062,8,8c_Co_1_Ch,,None,1
SR_epe_v1-4c_Cu_1_Ch_v2-3c_triazine_Ch_v3-4c_Cu_1_Ch_ntn_edge_1x1x1,0.19136,0.824,0.593071,2564.67,1521.03,23.98125,11.21793,41048.64938,,,,792,,324,288,288,C4Cu1N2O4,0.1,4,4c_Cu_1_Ch,15,O:C(:O)C1:N:C(:N:C(:N:1)C(:O):O)C(:O):O,1
SR_epp_v1-4c_B_Ch_v2-3c_triazine_Ch_v3-6c_Mg_1_Ch_1B_2furan_Ch_1x1x1,0.07714,0.9531,0.108772,6258.05,680.703,58.74631,34.53107,510635.9752,,,,3168,,240,240,96,C38H14Mg1N3O10,0.015384615,6,6c_Mg_1_Ch,,None,1
SR_epp_v1-4c_ethene_Ch_v2-3c_B_Ch_v3-6c_Mg_1_Ch_1B_2CF3_Ch_1x1x1,0.08241,0.80208,0.505393,2542.4,1284.91,30.6094,13.82449,131958.6721,,,,3168,,240,240,96,C33F18H10Mg1O4,0.015384615,6,6c_Mg_1_Ch,,None,1
SR_dni_v1-8c_Co_1_Ch_v2-3c_triazine_Ch_v3-3c_B_Ch_1B_2NH2_Ch_1x1x1,0.15051,0.80334,0.451751,3648.68,1648.3,25.68734,6.13044,50324.35463,,,,1446,,120,120,96,C108Co4H84N28O17,0.016877637,8,8c_Co_1_Ch,177,NC1:C:C(C2:C:C(:C:C(:C:2)C2:C:C(N):C(:C:C:2N)C2:N:C(:N:C(:N:2)C2:C:C(N):C(:C:C:2N)C2:C:C(:C:C(:C:2)C2:C:C(N):C(:C:C:2N)C(:O):O)C2:C:C(N):C(:C:C:2N)C(:O):O)C2:C:C(N):C(:C:C:2N)C2:C:C(:C:C(:C:2)C2:C:C(N):C(:C:C:2N)C(:O):O)C2:C:C(N):C(:C:C:2N)C(:O):O)C2:C:C(N):C(:C:C:2N)C(:O):O):C(N):C:C:1C(:O):O,1
SR_eft_v1-4c_porphyrin_Ch_v2-8c_Mn_1_Ch_v3-3c_triazine_Ch_ntn_edge_2x2x3,2.23136,0.71266,0.765411,2514.89,1924.93,8.83987,7.60057,36918.21285,,,,1236,,240,240,192,C40Cl1H10Mn4N48,0.04040404,8,8c_Mn_1_Ch,98,C1:C:C2:N:C:1:C(C1:N:C(:N:C(:N:1)C1:N:N:N:N:1)C1:N:N:N:N:1):C1:C:C:C(:[NH]:1):C(C1:N:C(:N:C(:N:1)C1:N:N:N:N:1)C1:N:N:N:N:1):C1:C:C:C(:N:1):C(C1:N:C(:N:C(:N:1)C1:N:N:N:N:1)C1:N:N:N:N:1):C1:C:C:C(:[NH]:1):C:2C1:N:C(:N:C(:N:1)C1:N:N:N:N:1)C1:N:N:N:N:1,1
SR_dnj_v1-8c_Co_1_Ch_v2-6c_B_Ch_v3-3c_triazine_Ch_1DoU_Ch_2TrU_Ch_1x1x1,0.12357,0.88124,0.291175,4278.61,1245.83,27.5015,20.49407,49709.02922,,,,630,,120,120,96,C64Co4H8N12O17,0.03960396,8,8c_Co_1_Ch,150,O:C(:O)C#CC#CC1:N:C(C#CC#CC(:O):O):N:C(C=CC2:C(C=CC3:N:C(C#CC#CC(:O):O):N:C(C#CC#CC(:O):O):N:3):C(C=CC3:N:C(C#CC#CC(:O):O):N:C(C#CC#CC(:O):O):N:3):C(C=CC3:N:C(C#CC#CC(:O):O):N:C(C#CC#CC(:O):O):N:3):C(C=CC3:N:C(C#CC#CC(:O):O):N:C(C#CC#CC(:O):O):N:3):C:2C=CC2:N:C(C#CC#CC(:O):O):N:C(C#CC#CC(:O):O):N:2):N:1,1
SR_epq_v1-4c_Cu_1_Ch_v2-6c_B_Ch_v3-3c_triazine_Ch_ntn_edge_2x2x2,1.30419,0.58934,1.36041,730.098,993.231,13.02023,6.6123,50062.54729,,,,2304,,864,768,768,C6Cu1N1O4,0.090909091,4,4c_Cu_1_Ch,264,O:C(:O)C1:C(C(:O):O):C2C3:N:C4:N:C(:N:3)C3:C(C(:O):O):C(C(:O):O):C(C5:N:C6:N:C(:N:5)C5:C(C(:O):O):C(C(:O):O):C(C7:N:C8:N:C(:N:7)C7:C(C(:O):O):C(C(:O):O):C(C9:N:C%10:N:C(:N:9)C9:C(C(:O):O):C(C(:O):O):C(C%11:N:C(:N:C(:N:%11)C%11:C(C(:O):O):C(C(:O):O):C6:C(C(:O):O):C:%11C(:O):O)C6:C(C(:O):O):C(C(:O):O):C(C%11:N:C(:N:C(:N:%11)C%11:C(C(:O):O):C(C(:O):O):C(C%12:N:C(:N:C(:N:%12)C%12:C(C(:O):O):C(C(:O):O):C%10:C(C(:O):O):C:%12C(:O):O)C%10:C(C(:O):O):C(C(:O):O):C(C%12:N:C(:N:C(:N:%12)C%12:C(C(:O):O):C(C(:O):O):C8:C(C(:O):O):C:%12C(:O):O)C8:C(C(:O):O):C(C(:O):O):C4:C(C(:O):O):C:8C(:O):O):C(C(:O):O):C:%10C(:O):O):C(C(:O):O):C:%11C(:O):O)C:1:C(C(:O):O):C:2C(:O):O):C(C(:O):O):C:6C(:O):O):C(C(:O):O):C:9C(:O):O):C(C(:O):O):C:7C(:O):O):C(C(:O):O):C:5C(:O):O):C(C(:O):O):C:3C(:O):O,1
SR_dna_v1-8c_Co_1_Ch_v2-6c_B_Ch_v3-3c_B_Ch_ntn_edge_1B_2OH_Ch_1x1x1,0.21247,0.66106,0.871595,1559.23,1359.02,17.3398,5.41036,31763.07339,,,,1404,,240,240,192,C60Co4H28O25,0.03539823,8,8c_Co_1_Ch,168,O:C(:O)C1:C:C(:C:C(:C:1)C1:C:C(O):C(:C:C:1O)C1:C(C2:C:C(O):C(:C:C:2O)C2:C:C(:C:C(:C:2)C(:O):O)C(:O):O):C(C2:C:C(O):C(:C:C:2O)C2:C:C(:C:C(:C:2)C(:O):O)C(:O):O):C(C2:C:C(O):C(:C:C:2O)C2:C:C(:C:C(:C:2)C(:O):O)C(:O):O):C(C2:C:C(O):C(:C:C:2O)C2:C:C(:C:C(:C:2)C(:O):O)C(:O):O):C:1C1:C:C(O):C(:C:C:1O)C1:C:C(:C:C(:C:1)C(:O):O)C(:O):O)C(:O):O,1
SR_eea_v1-3c_B_Ch_v2-6c_Zr_1_Ch_1B_4F_Ch_1x1x1,0.06089,0.85404,0.430823,3119.04,1343.75,25.42205,16.58361,87885.61488,,,,1296,,432,432,108,C27F12H14O16Zr3,0.043478261,6,6c_Zr_1_Ch,48,O:C(:O)C1:C(F):C(F):C(C2:C:C(:C:C(:C:2)C2:C(F):C(F):C(C(:O):O):C(F):C:2F)C2:C(F):C(F):C(C(:O):O):C(F):C:2F):C(F):C:1F,1
SR_dni_v1-8c_Zr_1_Ch_v2-3c_B_Ch_v3-3c_B_Ch_1B_4CN_Ch_1x1x1,0.10831,0.75558,0.586657,2766.26,1622.85,22.80802,6.1549,62605.62999,,,,1668,,288,288,96,C80H16N24O16Zr3,0.022058824,8,8c_Zr_1_Ch,180,N#CC1:C(C#N):C(C2:C:C(:C:C(:C:2)C2:C(C#N):C(C#N):C(C3:C:C(:C:C(:C:3)C3:C(C#N):C(C#N):C(C4:C:C(:C:C(:C:4)C4:C(C#N):C(C#N):C(C(:O):O):C(C#N):C:4C#N)C4:C(C#N):C(C#N):C(C(:O):O):C(C#N):C:4C#N):C(C#N):C:3C#N)C3:C(C#N):C(C#N):C(C4:C:C(:C:C(:C:4)C4:C(C#N):C(C#N):C(C(:O):O):C(C#N):C:4C#N)C4:C(C#N):C(C#N):C(C(:O):O):C(C#N):C:4C#N):C(C#N):C:3C#N):C(C#N):C:2C#N)C2:C(C#N):C(C#N):C(C(:O):O):C(C#N):C:2C#N):C(C#N):C(C#N):C:1C(:O):O,1
SR_eps_v1-3c_B_Ch_v2-8c_Zr_1_Ch_v3-4c_porphyrin_Ch_1TrU_Ch_1DoU_Ch_1x1x1,0.11699,0.80662,0.496421,3151.09,1564.27,23.89896,7.54088,20899.43282,,,,516,,144,144,48,C38H27N2O16Zr3,0.036144578,8,8c_Zr_1_Ch,134,O:C(:O)C=CC1:C:C(C#CC2:C3:C:C:C(:N:3):C(C#CC3:C:C(C=CC(:O):O):C:C(C=CC(:O):O):C:3):C3:C:C:C(:[NH]:3):C(C#CC3:C:C(C=CC(:O):O):C:C(C=CC(:O):O):C:3):C3:C:C:C(:N:3):C(C#CC3:C:C(C=CC(:O):O):C:C(C=CC(:O):O):C:3):C3:C:C:C:2:[NH]:3):C:C(C=CC(:O):O):C:1,1
SR_eci_v1-8c_Co_1_Ch_1B_2OH_Ch_2x2x1,0.2568,0.61774,1.08346,1344.12,1456.3,8.1085,5.70083,50873.83405,,,,2464,,640,640,512,C32Co4H16O25,0.054794521,8,8c_Co_1_Ch,18,O:C(:O)C1:C:C(O):C(:C:C:1O)C(:O):O,1
SR_hbm_v1-4c_1anC_Ch_v2-4c_V_1_Ch_1TrU_Ch_1B_4H_Ch_1x1x3,0.40329,0.70666,0.711817,2580.92,1837.15,12.65514,9.12514,15402.9104,,,,528,,108,96,96,C13H4O4V1,0.047619048,4,4c_V_1_Ch,168,O:C(:O)C#CC1(C#CC(:O):O)C2:C:C:C(:C:C:2)C(C#CC(:O):O)(C#CC(:O):O)C2:C:C:C(:C:C:2)C(C#CC(:O):O)(C#CC(:O):O)C2:C:C:C(:C:C:2)C(C#CC(:O):O)(C#CC(:O):O)C2:C:C:C(:C:C:2)C(C#CC(:O):O)(C#CC(:O):O)C2:C:C:C(:C:C:2)C(C#CC(:O):O)(C#CC(:O):O)C2:C:C:C(:C:C:2)C(C#CC(:O):O)(C#CC(:O):O)C2:C:C:C(:C:C:2)C(C#CC(:O):O)(C#CC(:O):O)C2:C:C:C1:C:C:2,1
SR_knc_v1-4c_porphyrin_Ch_v2-8c_Mn_1_Ch_v3-8c_Mn_1_Ch_1B_2NO2_Ch_2x2x1,0.25853,0.72898,0.660203,3164.47,2089.19,11.68231,6.58583,110311.1816,,,,3600,,320,320,256,C96Cl1H36Mn4N56O32,0.018099548,8,8c_Mn_1_Ch,110,O:N(:O)C1:C:C(:C(:C:C:1C1:N:N:N:N:1)N(:O):O)C1:C2:C:C:C(:N:2):C(C2:C:C(:C(:C:C:2N(:O):O)C2:N:N:N:N:2)N(:O):O):C2:C:C:C(:[NH]:2):C(C2:C:C(:C(:C:C:2N(:O):O)C2:N:N:N:N:2)N(:O):O):C2:C:C:C(:N:2):C(C2:C:C(:C(:C:C:2N(:O):O)C2:N:N:N:N:2)N(:O):O):C2:C:C:C:1:[NH]:2,1
SR_hyl_v1-3c_pyrrole_Ch_v2-6c_Cr_1_Ch_v3-4c_bicyclooctane_Ch_ntn_edge_2x2x1,0.44739,0.47002,1.35412,0,0,6.65514,1.87832,31521.34191,,,,1896,,360,360,288,C42Cr3H18N3O13,0.039473684,6,6c_Cr_1_Ch,,None,1
SR_jjt_v1-6c_Cr_1_Ch_v2-3c_B_Ch_v3-3c_B_Ch_1B_2NH2_Ch_ntn_edge_2x2x1,0.17019,0.76554,0.51919,4210.43,2186.01,11.43275,8.03437,40687.25407,,,,1136,,120,120,96,C66Cr3H48N12O13,0.021582734,6,6c_Cr_1_Ch,138,NC1:C:C(C2:C:C(:C:C(:C:2)C2:C:C(N):C(:C:C:2N)C(:O):O)C2:C:C(:C:C(:C:2)C2:C:C(:C:C(:C:2)C2:C:C(N):C(:C:C:2N)C(:O):O)C2:C:C(N):C(:C:C:2N)C(:O):O)C2:C:C(:C:C(:C:2)C2:C:C(N):C(:C:C:2N)C(:O):O)C2:C:C(N):C(:C:C:2N)C(:O):O):C(N):C:C:1C(:O):O,1
SR_kdd_v1-3c_Cu_imadazoline_Ch_v2-5c_bicyclooctane_Ch_1DoU_Ch_ntn_edge_2x1x3,0.23989,0.769,0.607385,4336.35,2633.83,9.18906,6.95568,44828.92967,,,,1416,,144,144,144,C29Cu3H18N9,0.053571429,3,3c_Cu_imadazoline_Ch,336,C(=CN1:C:C2:C(:C:1)C13C4:C:N(C=CC5:C:N:N:C:5):C:C:4C2(C=CC2:C:N:N:C:2)C2:C:N(:C:C:21)C12C4:C:N(C=CC5:C:N:N:C:5):C:C:4C(C=CC4:C:N:N:C:4)(C4:C:N(C=CC5:C:N:N:C:5):C:C:41)C1:C:N(:C:C:12)C12C4:C:N(C=CC5:C:N:N:C:5):C:C:4C(C=CC4:C:N:N:C:4)(C4:C:N(C=CC5:C:N:N:C:5):C:C:41)C1:C:N(:C:C:12)C12C4:C:N(C=CC5:C:N:N:C:5):C:C:4C(C=CC4:C:N:N:C:4)(C4:C:N(C=CC5:C:N:N:C:5):C:C:41)C1:C:N(:C:C:12)C12C4:C:N(C=CC5:C:N:N:C:5):C:C:4C(C=CC4:C:N:N:C:4)(C4:C:N(C=CC5:C:N:N:C:5):C:C:41)C1:C:N(:C:C:12)C12C4:C:N(C=CC5:C:N:N:C:5):C:C:4C(C=CC4:C:N:N:C:4)(C4:C:N(C=CC5:C:N:N:C:5):C:C:41)C1:C:N3:C:C:12)C1:C:N:N:C:1,1
SR_jbw_v1-4c_Cd_1_Ch_v2-4c_bicyclooctane_Ch_3B_fused_8H_Ch_ntn_edge_1x1x2,0.14836,0.85906,0.337604,4916.57,1659.85,17.15484,11.17866,27191.15248,,,,504,,64,64,64,C36Cd1H18O8,0.016129032,4,4c_Cd_1_Ch,"28,80",O:C(:O)C1:C:C:C2:C(:C:C:C3:C:C(:C:C:C:3:2)C(:O):O):C:1___O:C(:O)C1=CC23C=C(C(:O):O)C1C(=C2)C1:C:C:C2:C(:C:C:C4:C:C(:C:C:C:4:2)C24C=C(C(:O):O)C(C(=C2)C(:O):O)C(=C4)C2:C:C:C4:C(:C:C:C5:C:C3:C:C:C:5:4):C:2):C:1,1
SR_fsi_v1-4c_1anC_Ch_v2-4c_bicyclooctane_Ch_v3-6c_Al_1_Ch_1TrU_Ch_1x2x2,0.23117,0.729,0.647968,3380.52,2190.47,9.1002,5.97181,50126.712,,,,1488,,480,480,384,Al6C53H8O26,0.068965517,6,6c_Al_1_Ch,"21,32",O:C(:O)C#CC(C#CC(:O):O)(C#CC(:O):O)C#CC(:O):O___O:C(:O)C#CC1=CC2(C#CC(:O):O)C=C(C#CC(:O):O)C1C(C#CC(:O):O)=C2,1
SR_esg_v1-3c_triazine_Ch_v2-6c_Zr_1_Ch_1DoU_Ch_1x3x1,0.19303,0.61512,1.1168,1093.79,1221.54,7.59529,4.42631,29514.86133,,,,1224,,576,576,144,C12H17N3O16Zr3,0.0625,6,6c_Zr_1_Ch,27,O:C(:O)C=CC1:N:C(C=CC(:O):O):N:C(C=CC(:O):O):N:1,1
SR_gar_v1-4c_1anC_Ch_v2-6c_Mg_1_Ch_2B_4CN_Ch_1x1x1,0.08201,0.80306,0.425738,3711.63,1580.18,17.3814,14.30718,175465.3603,,,,3480,,480,480,192,C89H4Mg4N32O16,0.028368794,6,6c_Mg_1_Ch,125,N#CC1:C(C#N):C(:C(C#N):C(C#N):C:1C(:O):O)C1:C(C#N):C(C#N):C(:C(C#N):C:1C#N)C(C1:C(C#N):C(C#N):C(:C(C#N):C:1C#N)C1:C(C#N):C(C#N):C(C(:O):O):C(C#N):C:1C#N)(C1:C(C#N):C(C#N):C(:C(C#N):C:1C#N)C1:C(C#N):C(C#N):C(C(:O):O):C(C#N):C:1C#N)C1:C(C#N):C(C#N):C(:C(C#N):C:1C#N)C1:C(C#N):C(C#N):C(C(:O):O):C(C#N):C:1C#N,1
SR_kle_v1-3c_triazine_Ch_v2-12c_Zr_1_Ch_v3-3c_triazine_Ch_1TrU_Ch_1B_4H_Ch_1DoU_Ch_1x1x1,0.23414,0.74154,0.707091,3368.14,2381.58,13.21108,5.31911,39962.13441,,,,1152,,384,384,192,C33H11N9O16Zr3,0.043478261,12,12c_Zr_1_Ch,"42,42",O:C(:O)C#CC1:N:C(C#CC(:O):O):N:C(:N:1)C1:C:C:C(:C:C:1)C1:N:C(C#CC(:O):O):N:C(C#CC(:O):O):N:1___O:C(:O)C=CC1:N:C(C#CC2:N:C(C=CC(:O):O):N:C(C=CC(:O):O):N:2):N:C(C=CC(:O):O):N:1,1
SR_het_v1-4c_Cd_1_Ch_v2-3c_triazine_Ch_v3-3c_triazine_Ch_1B_2F_Ch_1x1x1,0.09668,0.91064,0.233293,5178.14,1208.03,36.77873,13.40632,99855.6146,,,,1068,,96,96,96,C48Cd1F12H12N8O8,0.011363636,4,4c_Cd_1_Ch,132,O:C(:O)C1:C:C(F):C(:C:C:1F)C1:N:C(:N:C(:N:1)C1:C:C(F):C(:C:C:1F)C1:N:C(:N:C(:N:1)C1:C:C(F):C(:C:C:1F)C1:N:C(:N:C(:N:1)C1:C:C(F):C(:C:C:1F)C(:O):O)C1:C:C(F):C(:C:C:1F)C(:O):O)C1:C:C(F):C(:C:C:1F)C1:N:C(:N:C(:N:1)C1:C:C(F):C(:C:C:1F)C(:O):O)C1:C:C(F):C(:C:C:1F)C(:O):O)C1:C:C(F):C(:C:C:1F)C(:O):O,1
SR_fsb_v1-4c_bicyclooctane_Ch_v2-6c_Fe_1_Ch_1B_2CH3_Ch_ntn_edge_2x2x2,0.30895,0.5939,0.869412,359.609,312.649,8.93044,3.73686,49077.11484,,,,2464,,240,240,192,C78Fe3H60O13,0.01986755,6,6c_Fe_1_Ch,300,CC1:C:C(C(:O):O):C(C):C:C:1C1=CC2(C=C3C4=CC5(C=C(C6=CC7(C=C(C8=CC9(C=C(C%10=CC%11(C=C(C%12=CC%13(C=C(C(=C2)C31)C%12C(=C%13)C1:C:C(C):C(:C:C:1C)C(:O):O)C1:C:C(C):C(:C:C:1C)C(:O):O)C%10C(=C%11)C1:C:C(C):C(:C:C:1C)C(:O):O)C1:C:C(C):C(:C:C:1C)C(:O):O)C8C(=C9)C1:C:C(C):C(:C:C:1C)C(:O):O)C1:C:C(C):C(:C:C:1C)C(:O):O)C6C(=C7)C1:C:C(C):C(:C:C:1C)C(:O):O)C1:C:C(C):C(:C:C:1C)C(:O):O)C4C(=C5)C1:C:C(C):C(:C:C:1C)C(:O):O)C1:C:C(C):C(:C:C:1C)C(:O):O)C1:C:C(C):C(:C:C:1C)C(:O):O,1