name,k,VF,density,ASA_grav,ASA_vol,LPD,PLD,volume,,,,N_atoms,,N_metal_containing_bonds,N_metal_nonmetal_bonds,N_metal_linker_bonds,formula,metal_nonmetal_ratio,metal_node_connectivity,metal_node_name,N_atoms_per_linker,linker_SMILES,N_ccs
SR_bal_v1-4c_1anC_Ch_v2-4c_Cd_1_Ch_1B_2NO2_Ch_2x2x2,0.05537,0.75124,0.682681,2619.12,1788.03,14.15321,8.73709,99483.22432,,,,2432,,384,384,384,C61Cd3H16N16O56,0.020134228,4,4c_Cd_1_Ch,"20,118",O:C(:O)C1:C:C(:C(:C:C:1N(:O):O)C(:O):O)N(:O):O___O:C(:O)C1:C:C(:C(:C:C:1N(:O):O)C(C1:C:C(:C(:C:C:1N(:O):O)C(:O):O)N(:O):O)(C1:C:C(:C(:C:C:1N(:O):O)C(:O):O)N(:O):O)C1:C:C(:C(:C:C:1N(:O):O)C(C1:C:C(:C(:C:C:1N(:O):O)C(:O):O)N(:O):O)(C1:C:C(:C(:C:C:1N(:O):O)C(:O):O)N(:O):O)C1:C:C(:C(:C:C:1N(:O):O)C(:O):O)N(:O):O)N(:O):O)N(:O):O,1
SR_bas_v1-4c_Cd_1_Ch_v2-4c_bicyclooctane_Ch_1B_2CF3_Ch_ntn_edge_1x1x1,0.0567,0.7907,0.5581,2233.29,1246.4,27.909,15.87862,47739.7281,,,,1212,,96,96,96,C52Cd1F24H16O8,0.01,4,4c_Cd_1_Ch,,None,1
SR_baa_v1-4c_In_1_Ch_v2-4c_In_1_Ch_2B_2CN_Ch_ntn_edge_1x2x1,0.14079,0.74956,0.71132,3413.99,2428.44,8.85168,5.99531,25721.23481,,,,696,,192,192,192,C44H8In3N8O24,0.035714286,4,4c_In_1_Ch,"30,6",N#CC1:C:C(:C(C#N):C:C:1C(:O):O)C1:C:C(C#N):C(:C:C:1C#N)C(:O):O___O:C(:O)C(:O):O,1
SR_bam_v1-4c_Cd_1_Ch_v2-4c_bicyclooctane_Ch_ntn_edge_1B_2CH3_Ch_1x1x2,0.06518,0.87882,0.277333,3796.87,1053,48.54534,45.56908,220361.3959,,,,3120,,384,384,384,C32Cd1H24O8,0.015625,4,4c_Cd_1_Ch,"440,6",CC1:C:C2C3=CC4(C=C5C6:C:C(C):C(:C:C:6C)C6=CC7(C=C8C9:C:C(C):C(:C:C:9C)C9=CC%10(C=C%11C%12:C:C(C):C(:C:C:%12C)C%12=CC%13(C=C(C:1:C:C:2C)C%12C(=C%13)C1:C:C(C):C(:C:C:1C)C1=CC2(C=C%12C%13:C:C(C):C(:C:C:%13C)C%13=CC%14(C=C(C%15:C:C(C):C(:C:C:%15C)C(=C4)C35)C%13C(=C%14)C3:C:C(C):C(:C:C:3C)C3=CC4(C=C(C5:C:C(C):C(:C:C:5C)C(=C7)C68)C3C(=C4)C3:C:C(C):C(:C:C:3C)C3=CC4(C=C(C5:C:C(C):C(:C:C:5C)C(=C%10)C%119)C3C(=C4)C3:C:C(C):C(:C:C:3C)C(=C2)C1%12)C1:C:C(C):C(:C:C:1C)C(:O):O)C1:C:C(C):C(:C:C:1C)C(:O):O)C1:C:C(C):C(:C:C:1C)C(:O):O)C1:C:C(C):C(:C:C:1C)C(:O):O)C1:C:C(C):C(:C:C:1C)C(:O):O)C1:C:C(C):C(:C:C:1C)C(:O):O)C1:C:C(C):C(:C:C:1C)C(:O):O)C1:C:C(C):C(:C:C:1C)C(:O):O___O:C(:O)C(:O):O,1
SR_baae_v1-6c_Zr_1_Ch_v2-6c_Zr_1_Ch_1B_2CN_Ch_1x1x1,0.08561,0.77078,0.665931,2130.44,1418.73,17.66236,12.20733,91685.4844,,,,2448,,1152,1152,288,C15H14N3O16Zr3,0.0625,6,6c_Zr_1_Ch,18,N#CC1:C:C(C(:O):O):C(C#N):C:C:1C(:O):O,1
SR_bac_v1-4c_bicyclooctane_Ch_v2-4c_In_1_Ch_2B_2NH2_Ch_1x1x1,0.03876,0.91196,0.201104,5975.37,1201.67,27.25416,21.46775,111709.7029,,,,1236,,96,96,96,C44H38In1N12O8,0.009803922,4,4c_In_1_Ch,"34,306",NC1:C:C(:C(N):C:C:1C(:O):O)C1:C:C(N):C(:C:C:1N)C(:O):O___NC1:C:C2:C(N):C:C:1C1=CC3(C=C(C4:C:C(N):C(:C:C:4N)C4:C:C(N):C(:C:C:4N)C4=CC5(C=C(C6:C:C(N):C(:C:C:6N)C6:C:C(N):C(:C:C:6N)C6=CC7(C=C(C8:C:C(N):C2:C:C:8N)C6C(=C7)C2:C:C(N):C(:C:C:2N)C2:C:C(N):C(:C:C:2N)C(:O):O)C2:C:C(N):C(:C:C:2N)C2:C:C(N):C(:C:C:2N)C(:O):O)C4C(=C5)C2:C:C(N):C(:C:C:2N)C2:C:C(N):C(:C:C:2N)C(:O):O)C2:C:C(N):C(:C:C:2N)C2:C:C(N):C(:C:C:2N)C(:O):O)C1C(=C3)C1:C:C(N):C(:C:C:1N)C1:C:C(N):C(:C:C:1N)C(:O):O)C1:C:C(N):C(:C:C:1N)C1:C:C(N):C(:C:C:1N)C(:O):O,1
SR_asv_v1-4c_V_1_Ch_v2-4c_1anC_Ch_ntn_edge_1B_4Br_Ch_2x2x2,0.44721,0.27532,3.23312,125.979,407.305,5.94971,4.85801,22013.37209,,,,1248,,144,128,128,Br12C22O4V1,0.026315789,4,4c_V_1_Ch,152,O:C(:O)C12C3:C(Br):C(Br):C(:C(Br):C:3Br)C3(C(:O):O)C4:C(Br):C(Br):C(:C(Br):C:4Br)C4(C(:O):O)C5:C(Br):C(Br):C(:C(Br):C:5Br)C(C(:O):O)(C5:C(Br):C(Br):C1:C(Br):C:5Br)C1:C(Br):C(Br):C(:C(Br):C:1Br)C1(C(:O):O)C5:C(Br):C(Br):C(:C(Br):C:5Br)C(C(:O):O)(C5:C(Br):C(Br):C2:C(Br):C:5Br)C2:C(Br):C(Br):C(:C(Br):C:2Br)C(C(:O):O)(C2:C(Br):C(Br):C3:C(Br):C:2Br)C2:C(Br):C(Br):C(:C(Br):C:2Br)C(C(:O):O)(C2:C(Br):C(Br):C4:C(Br):C:2Br)C2:C(Br):C(Br):C1:C(Br):C:2Br,1
SR_baa_v1-4c_In_1_Ch_v2-4c_bicyclooctane_Ch_ntn_edge_1TrU_Ch_2x2x3,0.90296,0.65578,0.924063,1866.41,1724.68,6.63496,4.31761,46763.57788,,,,1968,,384,384,384,C24H8In1O8,0.025,4,4c_In_1_Ch,"120,120",O:C(:O)C1=CC23C#CC45C=C(C#CC6=CC7(C#CC89C=C(C#CC%10=CC%11(C#CC%12%13C=C(C#CC(=C2)C1C(=C3)C(:O):O)C(C(=C%12)C(:O):O)C(=C%13)C(:O):O)C=C(C(:O):O)C%10C(=C%11)C(:O):O)C(C(=C8)C(:O):O)C(=C9)C(:O):O)C=C(C(:O):O)C6C(=C7)C(:O):O)C(C(=C4)C(:O):O)C(=C5)C(:O):O___O:C(:O)C1=CC23C#CC4=CC5(C#CC6=CC7(C#CC8=CC9(C#CC%10=CC%11(C#CC%12=CC%13(C#CC(=C2)C1C(=C3)C(:O):O)C=C(C(:O):O)C%12C(=C%13)C(:O):O)C=C(C(:O):O)C%10C(=C%11)C(:O):O)C=C(C(:O):O)C8C(=C9)C(:O):O)C=C(C(:O):O)C6C(=C7)C(:O):O)C=C(C(:O):O)C4C(=C5)C(:O):O,1
SR_asv_v1-4c_Ni_1_Ch_v2-4c_bicyclooctane_Ch_1TrU_Ch_2x2x2,0.15982,0.83968,0.364243,4829.26,1759.02,21.28392,16.22352,68136.70328,,,,1312,,144,128,128,C28H8Ni1O4,0.025,4,4c_Ni_1_Ch,160,O:C(:O)C#CC12C=C3C#CC4=CC5(C#CC(:O):O)C=C6C#CC7=CC8(C#CC(:O):O)C=C9C#CC%10=CC%11(C#CC(:O):O)C=C%12C#CC(=C1)C3C(C#CC1=CC3(C#CC(:O):O)C=C%13C#CC%14=CC%15(C#CC(:O):O)C=C(C#CC(=C5)C46)C%14C(C#CC4=CC5(C#CC(:O):O)C=C(C#CC(=C8)C79)C4C(C#CC4=CC6(C#CC(:O):O)C=C(C#CC(=C%11)C%12%10)C4C(C#CC(=C3)C1%13)=C6)=C5)=C%15)=C2,1
SR_ban_v1-4c_In_1_Ch_v2-4c_bicyclooctane_Ch_1DoU_Ch_ntn_edge_1x1x1,0.07313,0.86744,0.359479,3504.57,1259.82,23.94991,20.74125,69349.28622,,,,1184,,256,256,256,C18H10In1O8,0.027777778,4,4c_In_1_Ch,"6,240",O:C(:O)C(:O):O___O:C(:O)C=CC1=CC23C=CC45C=C(C=CC6=CC7(C=CC89C=C(C=CC%10=CC%11(C=CC%12%13C=C(C=CC%14=CC%15(C=CC%16%17C=C(C=CC(=C2)C1C(C=CC(:O):O)=C3)C(C(C=CC(:O):O)=C%16)C(C=CC(:O):O)=C%17)C=C(C=CC(:O):O)C%14C(C=CC(:O):O)=C%15)C(C(C=CC(:O):O)=C%12)C(C=CC(:O):O)=C%13)C=C(C=CC(:O):O)C%10C(C=CC(:O):O)=C%11)C(C(C=CC(:O):O)=C8)C(C=CC(:O):O)=C9)C=C(C=CC(:O):O)C6C(C=CC(:O):O)=C7)C(C(C=CC(:O):O)=C4)C(C=CC(:O):O)=C5,1
SR_bbc_v1-4c_In_1_Ch_v2-4c_In_1_Ch_1B_2CF3_Ch_ntn_edge_2x2x2,0.09637,0.78988,0.735066,2775.49,2040.17,11.95294,8.13857,78416.99923,,,,1760,,768,768,768,C20F6H2In3O24,0.057692308,4,4c_In_1_Ch,"6,22",O:C(:O)C(:O):O___O:C(:O)C1:C:C(:C(:C:C:1C(F)(F)F)C(:O):O)C(F)(F)F,1
SR_bas_v1-4c_In_1_Ch_v2-4c_1anC_Ch_2B_2F_Ch_ntn_edge_1x1x1,0.06502,0.8191,0.467419,2966.15,1386.43,27.31972,14.59129,51653.03859,,,,1140,,96,96,96,C54F16H16In1O8,0.010638298,4,4c_In_1_Ch,,None,1
SR_bbf_v1-4c_porphyrin_Ch_v2-4c_Cd_1_Ch_ntn_edge_2B_2Br_Ch_2x2x2,0.09977,0.74982,0.812864,2508.08,2038.73,9.97036,6.79951,59450.76716,,,,1600,,256,256,256,Br4C26Cd1H9N2O8,0.020408163,4,4c_Cd_1_Ch,"46,26",O:C(:O)C1:C2:C:C:C(:N:2):C(C(:O):O):C2:C:C:C(:[NH]:2):C(C(:O):O):C2:C:C:C(:N:2):C(C(:O):O):C2:C:C:C:1:[NH]:2___O:C(:O)C1:C:C(Br):C(:C:C:1Br)C1:C:C(Br):C(:C:C:1Br)C(:O):O,1
SR_bat_v1-4c_In_1_Ch_v2-4c_bicyclooctane_Ch_1B_2Br_Ch_ntn_edge_1x1x1,0.039,0.87466,0.417029,2204.67,919.41,42.10725,22.02235,70892.73313,,,,960,,192,192,192,Br3C21H7In1O8,0.025641026,4,4c_In_1_Ch,,None,1
SR_bap_v1-4c_bicyclooctane_Ch_v2-4c_In_1_Ch_1B_4Br_Ch_1x1x1,0.03724,0.84748,0.635423,1876.35,1192.28,32.69824,23.65855,100268.7925,,,,1048,,192,192,192,Br32C68H4In3O24,0.0234375,4,4c_In_1_Ch,"16,112",O:C(:O)C1:C(Br):C(Br):C(C(:O):O):C(Br):C:1Br___O:C(:O)C1:C(Br):C(Br):C(C2=CC3(C=C(C4:C(Br):C(Br):C(C(:O):O):C(Br):C:4Br)C2C(=C3)C2:C(Br):C(Br):C(C(:O):O):C(Br):C:2Br)C2:C(Br):C(Br):C(:C(Br):C:2Br)C23C=C(C4:C(Br):C(Br):C(C(:O):O):C(Br):C:4Br)C(C(=C2)C2:C(Br):C(Br):C(C(:O):O):C(Br):C:2Br)C(=C3)C2:C(Br):C(Br):C(C(:O):O):C(Br):C:2Br):C(Br):C:1Br,1
SR_baae_v1-6c_Zr_1_Ch_v2-6c_Zr_1_Ch_1B_2Br_Ch_1x1x1,0.07853,0.7793,0.767846,1792.36,1376.26,17.24093,12.18765,96343.75223,,,,2304,,1152,1152,288,Br3C12H14O16Zr3,0.066666667,6,6c_Zr_1_Ch,16,O:C(:O)C1:C:C(Br):C(:C:C:1Br)C(:O):O,1
SR_aww_v1-4c_In_1_Ch_v2-4c_In_1_Ch_2B_4CN_Ch_ntn_edge_1x1x1,0.04683,0.8438,0.413968,3618.67,1498.01,27.04263,19.97383,61915.57718,,,,984,,192,192,192,C24In1N8O8,0.025,4,4c_In_1_Ch,"34,6",N#CC1:C(C#N):C(:C(C#N):C(C#N):C:1C(:O):O)C1:C(C#N):C(C#N):C(C(:O):O):C(C#N):C:1C#N___O:C(:O)C(:O):O,1
SR_baae_v1-6c_Zr_1_Ch_v2-6c_Zr_1_Ch_ntn_edge_1B_2CH3_Ch_1x1x2,0.10021,0.73012,0.783968,2017.78,1581.87,14.78314,10.11095,145543.9554,,,,5216,,2304,2304,576,C41H65O48Zr9,0.058441558,6,6c_Zr_1_Ch,"22,6",CC1:C:C(C(:O):O):C(C):C:C:1C(:O):O___O:C(:O)C(:O):O,1
SR_baa_v1-4c_Cd_1_Ch_v2-4c_bicyclooctane_Ch_2B_4Br_Ch_ntn_edge_2x2x2,0.30665,0.54292,1.78908,0,0,5.86255,3.11242,61242.59274,,,,2464,,256,256,256,Br16C44Cd1H8O8,0.013157895,4,4c_Cd_1_Ch,"152,152",O:C(:O)C1=CC23C=C(C(:O):O)C1C(=C2)C1:C(Br):C(Br):C(:C(Br):C:1Br)C1:C(Br):C(Br):C(:C(Br):C:1Br)C12C=C(C(:O):O)C(C(=C1)C(:O):O)C(=C2)C1:C(Br):C(Br):C(:C(Br):C:1Br)C1:C(Br):C(Br):C(:C(Br):C:1Br)C12C=C(C(:O):O)C(C(=C1)C(:O):O)C(=C2)C1:C(Br):C(Br):C(:C(Br):C:1Br)C1:C(Br):C(Br):C(:C(Br):C:1Br)C12C=C(C(:O):O)C(C(=C1)C(:O):O)C(=C2)C1:C(Br):C(Br):C(:C(Br):C:1Br)C1:C(Br):C(Br):C3:C(Br):C:1Br___O:C(:O)C1=CC23C=C(C(:O):O)C1C(=C2)C1:C(Br):C(Br):C(:C(Br):C:1Br)C1:C(Br):C(Br):C(C2=CC4(C=C(C(:O):O)C2C(=C4)C(:O):O)C2:C(Br):C(Br):C(:C(Br):C:2Br)C2:C(Br):C(Br):C(:C(Br):C:2Br)C24C=C(C(:O):O)C(C(=C2)C(:O):O)C(=C4)C2:C(Br):C(Br):C(:C(Br):C:2Br)C2:C(Br):C(Br):C(C4=CC5(C=C(C(:O):O)C4C(=C5)C(:O):O)C4:C(Br):C(Br):C(:C(Br):C:4Br)C4:C(Br):C(Br):C3:C(Br):C:4Br):C(Br):C:2Br):C(Br):C:1Br,1
SR_att_v1-4c_Cd_1_Ch_v2-4c_bicyclooctane_Ch_2B_2CN_Ch_1x1x1,0.03613,0.91148,0.204388,5995.66,1225.44,26.81963,22.35159,71186.16775,,,,728,,64,64,64,C56Cd1H14N12O8,0.011111111,4,4c_Cd_1_Ch,"30,360",N#CC1:C:C(:C(C#N):C:C:1C(:O):O)C1:C:C(C#N):C(:C:C:1C#N)C(:O):O___N#CC1:C:C2:C(C#N):C:C:1C1=CC3(C=C(C4:C:C(C#N):C(:C:C:4C#N)C4:C:C(C#N):C(:C:C:4C#N)C(:O):O)C1C(=C3)C1:C:C(C#N):C(:C:C:1C#N)C1:C:C(C#N):C(:C:C:1C#N)C(:O):O)C1:C:C(C#N):C(:C:C:1C#N)C1:C:C(C#N):C(:C:C:1C#N)C13C=C(C4:C:C(C#N):C(:C:C:4C#N)C4:C:C(C#N):C(:C:C:4C#N)C4=CC5(C=C(C6:C:C(C#N):C(:C:C:6C#N)C6:C:C(C#N):C(:C:C:6C#N)C(:O):O)C4C(=C5)C4:C:C(C#N):C(:C:C:4C#N)C4:C:C(C#N):C(:C:C:4C#N)C(:O):O)C4:C:C(C#N):C(:C:C:4C#N)C4:C:C(C#N):C(:C:C:4C#N)C45C=C(C6:C:C(C#N):C2:C:C:6C#N)C(C(=C4)C2:C:C(C#N):C(:C:C:2C#N)C2:C:C(C#N):C(:C:C:2C#N)C(:O):O)C(=C5)C2:C:C(C#N):C(:C:C:2C#N)C2:C:C(C#N):C(:C:C:2C#N)C(:O):O)C(C(=C1)C1:C:C(C#N):C(:C:C:1C#N)C1:C:C(C#N):C(:C:C:1C#N)C(:O):O)C(=C3)C1:C:C(C#N):C(:C:C:1C#N)C1:C:C(C#N):C(:C:C:1C#N)C(:O):O,1
SR_bac_v1-4c_bicyclooctane_Ch_v2-4c_In_1_Ch_ntn_edge_2B_2CF3_Ch_1x1x1,0.03971,0.85902,0.392982,3745.89,1472.07,24.38942,18.58583,81995.28209,,,,1188,,96,96,96,C48F30H12In1O8,0.010204082,4,4c_In_1_Ch,"38,246",O:C(:O)C1:C:C(:C(:C:C:1C(F)(F)F)C1:C:C(:C(:C:C:1C(F)(F)F)C(:O):O)C(F)(F)F)C(F)(F)F___O:C(:O)C1:C:C(:C(:C:C:1C(F)(F)F)C1:C:C(:C(:C:C:1C(F)(F)F)C1=CC2(C=C3C4=CC5(C=C(C6=CC7(C=C(C(=C2)C31)C6C(=C7)C1:C:C(:C(:C:C:1C(F)(F)F)C1:C:C(:C(:C:C:1C(F)(F)F)C(:O):O)C(F)(F)F)C(F)(F)F)C1:C:C(:C(:C:C:1C(F)(F)F)C1:C:C(:C(:C:C:1C(F)(F)F)C(:O):O)C(F)(F)F)C(F)(F)F)C4C(=C5)C1:C:C(:C(:C:C:1C(F)(F)F)C1:C:C(:C(:C:C:1C(F)(F)F)C(:O):O)C(F)(F)F)C(F)(F)F)C1:C:C(:C(:C:C:1C(F)(F)F)C1:C:C(:C(:C:C:1C(F)(F)F)C(:O):O)C(F)(F)F)C(F)(F)F)C1:C:C(:C(:C:C:1C(F)(F)F)C1:C:C(:C(:C:C:1C(F)(F)F)C(:O):O)C(F)(F)F)C(F)(F)F)C(F)(F)F)C(F)(F)F,1
SR_baae_v1-6c_Zr_1_Ch_v2-6c_Zr_1_Ch_1TrU_Ch_ntn_edge_1x1x2,0.09831,0.72846,0.876243,1959.37,1716.88,14.12803,8.20717,110793.4438,,,,3424,,2304,2304,576,C17H33O48Zr9,0.091836735,6,6c_Zr_1_Ch,"8,6",O:C(:O)C#CC(:O):O___O:C(:O)C(:O):O,1
SR_baae_v1-6c_Zr_1_Ch_v2-6c_Zr_1_Ch_ntn_edge_1DoU_Ch_1x1x2,0.1257,0.71594,0.907808,1872.28,1699.67,14.36519,7.92558,107408.4821,,,,3680,,2304,2304,576,C17H41O48Zr9,0.08490566,6,6c_Zr_1_Ch,"6,10",O:C(:O)C(:O):O___O:C(:O)C=CC(:O):O,1
SR_baae_v1-6c_Zr_1_Ch_v2-6c_Zr_1_Ch_1TrU_Ch_1DoU_Ch_1B_4H_Ch_1x1x1,0.09761,0.76534,0.747143,2146.31,1603.6,15.41791,11.31291,66449.9458,,,,1856,,1152,1152,288,C20H39O48Zr9,0.08411215,6,6c_Zr_1_Ch,"8,16,10",O:C(:O)C#CC(:O):O___O:C(:O)C1:C:C:C(:C:C:1)C(:O):O___O:C(:O)C=CC(:O):O,1
SR_bap_v1-4c_bicyclooctane_Ch_v2-4c_In_1_Ch_ntn_edge_1B_2NH2_Ch_1x1x1,0.08845,0.82164,0.513933,2735.84,1406.04,22.77596,17.97819,38959.64178,,,,744,,192,192,192,C38H22In3N6O24,0.033333333,4,4c_In_1_Ch,"126,6",NC1:C:C(C(:O):O):C(N):C:C:1C1=CC2(C=C(C3:C:C(N):C(:C:C:3N)C(:O):O)C1C(=C2)C1:C:C(N):C(:C:C:1N)C(:O):O)C12C=C(C3:C:C(N):C(:C:C:3N)C(:O):O)C(C(=C1)C1:C:C(N):C(:C:C:1N)C(:O):O)C(=C2)C1:C:C(N):C(:C:C:1N)C(:O):O___O:C(:O)C(:O):O,1
SR_bbd_v1-4c_bicyclooctane_Ch_v2-4c_Cd_1_Ch_1TrU_Ch_1B_4H_Ch_1DoU_Ch_1x1x2,0.07716,0.86908,0.352512,4700.26,1656.9,23.81454,16.53785,66274.41473,,,,1024,,256,256,256,C16Cd1H7O8,0.032258065,4,4c_Cd_1_Ch,"256,10",O:C(:O)C#CC1=CC23C=C(C#CC(:O):O)C1C(=C2)C1:C:C:C(:C:C:1)C1=CC2(C=C(C#CC(:O):O)C1C(C#CC(:O):O)=C2)C1:C:C:C(:C:C:1)C12C=C(C#CC(:O):O)C(C(C#CC(:O):O)=C1)C(=C2)C1:C:C:C(:C:C:1)C1=CC2(C=C(C#CC(:O):O)C1C(C#CC(:O):O)=C2)C1:C:C:C(:C:C:1)C12C=C(C#CC(:O):O)C(C(C#CC(:O):O)=C1)C(=C2)C1:C:C:C(:C:C:1)C1=CC2(C=C(C#CC(:O):O)C1C(C#CC(:O):O)=C2)C1:C:C:C(:C:C:1)C12C=C(C#CC(:O):O)C(C(C#CC(:O):O)=C1)C(=C2)C1:C:C:C(:C:C:1)C1=CC2(C=C(C#CC(:O):O)C1C(C#CC(:O):O)=C2)C1:C:C:C3:C:C:1___O:C(:O)C=CC(:O):O,1
SR_bbe_v1-4c_Cu_1_Ch_v2-4c_bicyclooctane_Ch_1B_2furan_Ch_ntn_edge_2x2x1,0.24391,0.84626,0.395474,3953.96,1563.69,17.09141,16.46334,58602.77306,,,,1184,,144,128,128,C21Cu1H8O7,0.027777778,4,4c_Cu_1_Ch,"6,264",O:C(:O)C(:O):O___O:C(:O)C1:C:C2:C:C3:O:C(:C:C:3:C:C:2:O:1)C1=CC23C=C(C4:C:C5:C:C6:O:C(:C:C:6:C:C:5:O:4)C4=CC5(C=C(C6:C:C7:C:C8:O:C(:C:C:8:C:C:7:O:6)C(:O):O)C4C(=C5)C4:C:C5:C:C6:O:C(:C:C:6:C:C:5:O:4)C(:O):O)C4:C:C5:C:C6:O:C(:C:C:6:C:C:5:O:4)C45C=C(C6:C:C7:C:C8:O:C(:C:C:8:C:C:7:O:6)C6=CC7(C=C(C8:C:C9:C:C%10:O:C(:C:C:%10:C:C:9:O:8)C(:O):O)C6C(=C7)C6:C:C7:C:C8:O:C(:C:C:8:C:C:7:O:6)C(:O):O)C6:C:C7:C:C8:O:C2:C:C:8:C:C:7:O:6)C(C(=C4)C2:C:C4:C:C6:O:C(:C:C:6:C:C:4:O:2)C(:O):O)C(=C5)C2:C:C4:C:C5:O:C(:C:C:5:C:C:4:O:2)C(:O):O)C1C(=C3)C1:C:C2:C:C3:O:C(:C:C:3:C:C:2:O:1)C(:O):O,1
SR_bat_v1-4c_Cd_1_Ch_v2-4c_bicyclooctane_Ch_ntn_edge_1B_4F_Ch_1x1x1,0.04327,0.87832,0.349282,3017.17,1053.84,43.88756,20.61151,95021.68169,,,,1320,,192,192,192,C30Cd1F12H4O8,0.018518519,4,4c_Cd_1_Ch,,None,1
SR_bbd_v1-4c_bicyclooctane_Ch_v2-4c_In_1_Ch_1B_2SH_Ch_ntn_edge_1x1x2,0.10466,0.80442,0.538638,3092.9,1665.95,20.57211,12.61604,54384.825,,,,1184,,256,256,256,C17H8In1O8S3,0.027777778,4,4c_In_1_Ch,"6,432",O:C(:O)C(:O):O___O:C(:O)C1:C:C(S):C(:C:C:1S)C1=CC23C=C(C4:C:C(S):C(:C:C:4S)C4=CC5(C=C(C6:C:C(S):C(:C:C:6S)C(:O):O)C4C(=C5)C4:C:C(S):C(:C:C:4S)C(:O):O)C4:C:C(S):C(:C:C:4S)C45C=C(C6:C:C(S):C(:C:C:6S)C6=CC7(C=C(C8:C:C(S):C(:C:C:8S)C(:O):O)C6C(=C7)C6:C:C(S):C(:C:C:6S)C(:O):O)C6:C:C(S):C(:C:C:6S)C67C=C(C8:C:C(S):C(:C:C:8S)C8=CC9(C=C(C%10:C:C(S):C(:C:C:%10S)C(:O):O)C8C(=C9)C8:C:C(S):C(:C:C:8S)C(:O):O)C8:C:C(S):C(:C:C:8S)C89C=C(C%10:C:C(S):C(:C:C:%10S)C%10=CC%11(C=C(C%12:C:C(S):C(:C:C:%12S)C(:O):O)C%10C(=C%11)C%10:C:C(S):C(:C:C:%10S)C(:O):O)C%10:C:C(S):C2:C:C:%10S)C(C(=C8)C2:C:C(S):C(:C:C:2S)C(:O):O)C(=C9)C2:C:C(S):C(:C:C:2S)C(:O):O)C(C(=C6)C2:C:C(S):C(:C:C:2S)C(:O):O)C(=C7)C2:C:C(S):C(:C:C:2S)C(:O):O)C(C(=C4)C2:C:C(S):C(:C:C:2S)C(:O):O)C(=C5)C2:C:C(S):C(:C:C:2S)C(:O):O)C1C(=C3)C1:C:C(S):C(:C:C:1S)C(:O):O,1
SR_bat_v1-4c_In_1_Ch_v2-4c_1anC_Ch_1TrU_Ch_1x1x1,0.15864,0.84406,0.473641,3051.9,1445.51,30.95958,13.73587,33568.5519,,,,528,,192,192,192,C13In1O8,0.047619048,4,4c_In_1_Ch,"8,216",O:C(:O)C#CC(:O):O___O:C(:O)C#CC12C#CC3(C#CC(:O):O)C#CC4(C#CC(:O):O)C#CC(C#CC(:O):O)(C#C1)C#CC1(C#CC(:O):O)C#CC5(C#CC(:O):O)C#CC6(C#CC(:O):O)C#CC(C#CC(:O):O)(C#C2)C#CC2(C#CC(:O):O)C#CC7(C#CC(:O):O)C#CC(C#CC(:O):O)(C#C3)C#CC3(C#CC(:O):O)C#CC(C#CC(:O):O)(C#C7)C#CC7(C#CC(:O):O)C#CC(C#CC(:O):O)(C#CC(C#CC(:O):O)(C#C2)C#C6)C#CC2(C#CC(:O):O)C#CC(C#CC(:O):O)(C#C5)C#CC(C#CC(:O):O)(C#C1)C#CC1(C#CC(:O):O)C#CC(C#CC(:O):O)(C#C4)C#CC(C#CC(:O):O)(C#C3)C#CC(C#CC(:O):O)(C#C1)C#CC(C#CC(:O):O)(C#C7)C#C2,1
SR_baae_v1-6c_Zr_1_Ch_v2-6c_Zr_1_Ch_1B_4F_Ch_ntn_edge_1x1x2,0.09314,0.73324,0.854948,1850.99,1582.5,15.02729,10.22925,144370.1019,,,,4448,,2304,2304,576,C33F16H33O48Zr9,0.069230769,6,6c_Zr_1_Ch,"6,16",O:C(:O)C(:O):O___O:C(:O)C1:C(F):C(F):C(C(:O):O):C(F):C:1F,1
SR_bbc_v1-4c_bicyclooctane_Ch_v2-4c_In_1_Ch_1B_2thiophene_Ch_1x1x1,0.05271,0.91908,0.214253,5481.6,1174.45,26.20474,16.80263,56177.93272,,,,536,,64,64,64,C38H14In1O8S6,0.015151515,4,4c_In_1_Ch,"22,264",O:C(:O)C1:C:C2:C:C3:S:C(:C:C:3:C:C:2:S:1)C(:O):O___O:C(:O)C1:C:C2:C:C3:S:C(:C:C:3:C:C:2:S:1)C1=CC2(C=C3C4:C:C5:C:C6:S:C(:C:C:6:C:C:5:S:4)C4=CC5(C=C(C6:C:C7:C:C8:S:C(:C:C:8:C:C:7:S:6)C6=CC7(C=C(C8:C:C9:C:C%10:S:C(:C:C:%10:C:C:9:S:8)C8=CC9(C=C(C%10:C:C%11:C:C%12:S:C(:C:C:%12:C:C:%11:S:%10)C(=C2)C31)C8C(=C9)C1:C:C2:C:C3:S:C(:C:C:3:C:C:2:S:1)C(:O):O)C1:C:C2:C:C3:S:C(:C:C:3:C:C:2:S:1)C(:O):O)C6C(=C7)C1:C:C2:C:C3:S:C(:C:C:3:C:C:2:S:1)C(:O):O)C1:C:C2:C:C3:S:C(:C:C:3:C:C:2:S:1)C(:O):O)C4C(=C5)C1:C:C2:C:C3:S:C(:C:C:3:C:C:2:S:1)C(:O):O)C1:C:C2:C:C3:S:C(:C:C:3:C:C:2:S:1)C(:O):O)C1:C:C2:C:C3:S:C(:C:C:3:C:C:2:S:1)C(:O):O,1
SR_baa_v1-4c_In_1_Ch_v2-4c_In_1_Ch_ntn_edge_2B_4CN_Ch_1x1x3,0.09587,0.73966,0.656718,3244.19,2130.52,10.04683,7.95921,69235.46685,,,,1812,,288,288,288,C92In3N32O24,0.02027027,4,4c_In_1_Ch,"34,6",N#CC1:C(C#N):C(:C(C#N):C(C#N):C:1C(:O):O)C1:C(C#N):C(C#N):C(C(:O):O):C(C#N):C:1C#N___O:C(:O)C(:O):O,1
SR_att_v1-4c_In_1_Ch_v2-4c_In_1_Ch_ntn_edge_1B_2Br_Ch_1x2x2,0.0996,0.74282,0.942756,2297.37,2165.86,11.92172,7.04233,44375.72939,,,,1104,,384,384,384,Br2C10H2In1O8,0.045454545,4,4c_In_1_Ch,"6,16",O:C(:O)C(:O):O___O:C(:O)C1:C:C(Br):C(:C:C:1Br)C(:O):O,1
SR_baae_v1-6c_Zr_1_Ch_v2-6c_Zr_1_Ch_1B_4CN_Ch_ntn_edge_1x1x2,0.11382,0.653,1.07993,1418.37,1531.74,10.56631,7.41909,102499.3472,,,,4064,,2304,2304,576,C29H33N8O48Zr9,0.076271186,6,6c_Zr_1_Ch,"20,6",N#CC1:C(C#N):C(C(:O):O):C(C#N):C(C#N):C:1C(:O):O___O:C(:O)C(:O):O,1
SR_bch_v1-3c_triazine_Ch_v2-3c_triazine_Ch_v3-6c_Mg_1_Ch_ntn_edge_1B_2CN_Ch_1x1x1,0.26942,0.73454,0.611431,2709.44,1656.64,11.77524,8.53123,29779.03713,,,,864,,240,240,96,C8H2Mg1N3O4,0.058823529,6,6c_Mg_1_Ch,78,N#CC1:C:C(C2:N:C(:N:C(:N:2)C2:C:C(C#N):C(:C:C:2C#N)C2:N:C(:N:C(:N:2)C(:O):O)C(:O):O)C2:C:C(C#N):C(:C:C:2C#N)C2:N:C(:N:C(:N:2)C(:O):O)C(:O):O):C(C#N):C:C:1C1:N:C(:N:C(:N:1)C(:O):O)C(:O):O,1
SR_bcs_v1-6c_CdZn_1_Ch_1B_2CH3_Ch_1x1x1,0.18743,0.68262,1.00126,1875.46,1877.84,7.46538,4.29982,26406.03279,,,,1136,,256,256,192,C30Cd3H24O13Zn1,0.059701493,6,6c_CdZn_1_Ch,22,CC1:C:C(C(:O):O):C(C):C:C:1C(:O):O,1
SR_bbr_v1-4c_Cd_1_Ch_v2-4c_Cd_1_Ch_1B_4Br_Ch_1x1x2,0.05087,0.84092,0.678653,2248.08,1525.66,20.1791,18.07027,41965.64805,,,,528,,128,128,128,Br8C16Cd1O8,0.03125,4,4c_Cd_1_Ch,16,O:C(:O)C1:C(Br):C(Br):C(C(:O):O):C(Br):C:1Br,1
SR_bcd_v1-4c_1anC_Ch_v2-4c_Cd_1_Ch_1B_2NH2_Ch_ntn_edge_1x1x2,0.13172,0.7448,0.823587,1799.6,1482.12,18.4839,14.71793,22422.33969,,,,656,,256,256,256,C15Cd2H6N2O16,0.051282051,4,4c_Cd_1_Ch,"84,6",NC1:C:C2:C(N):C:C:1C(C(:O):O)(C(:O):O)C1:C:C(N):C(:C:C:1N)C(C(:O):O)(C(:O):O)C1:C:C(N):C(:C:C:1N)C(C(:O):O)(C(:O):O)C1:C:C(N):C(:C:C:1N)C2(C(:O):O)C(:O):O___O:C(:O)C(:O):O,1
SR_bcs_v1-6c_CdZn_1_Ch_1B_2NH2_Ch_1x1x1,0.16055,0.70234,1.00226,2132.4,2137.23,7.62615,4.36357,26536.8793,,,,1040,,256,256,192,C24Cd3H18N6O13Zn1,0.06557377,6,6c_CdZn_1_Ch,20,NC1:C:C(C(:O):O):C(N):C:C:1C(:O):O,1
SR_bcs_v1-6c_Mg_1_Ch_1B_2CN_Ch_1x1x1,0.37904,0.7759,0.511041,3927.93,2007.34,11.66792,8.48475,55022.42779,,,,1344,,480,480,192,C6H2Mg1N1O4,0.076923077,6,6c_Mg_1_Ch,18,N#CC1:C:C(C(:O):O):C(C#N):C:C:1C(:O):O,1
SR_bbi_v1-4c_Cd_1_Ch_v2-4c_Cd_1_Ch_1B_2CN_Ch_1x2x1,0.0587,0.87118,0.339306,4723.45,1602.7,17.51319,12.72235,63506.69604,,,,888,,192,192,192,C20Cd1H4N4O8,0.027777778,4,4c_Cd_1_Ch,18,N#CC1:C:C(C(:O):O):C(C#N):C:C:1C(:O):O,1
SR_bcd_v1-4c_In_1_Ch_v2-4c_In_1_Ch_1B_2CH3_Ch_ntn_edge_1x1x2,0.05364,0.85982,0.386509,3857.85,1491.09,29.2311,26.44893,88617.66262,,,,1648,,384,384,384,C44H32In3O24,0.03,4,4c_In_1_Ch,"22,6",CC1:C:C(C(:O):O):C(C):C:C:1C(:O):O___O:C(:O)C(:O):O,1