name,k,VF,density,ASA_grav,ASA_vol,LPD,PLD,volume,,,,N_atoms,,N_metal_containing_bonds,N_metal_nonmetal_bonds,N_metal_linker_bonds,formula,metal_nonmetal_ratio,metal_node_connectivity,metal_node_name,N_atoms_per_linker,linker_SMILES,N_ccs
SR_dna_v1-8c_Co_1_Ch_v2-6c_B_Ch_v3-3c_B_Ch_1B_4Br_Ch_1x1x1,0.08581,0.74596,1.04916,1175.8,1233.6,30.1763,11.152,107369.6717,,,,2268,,240,240,192,Br48C108Co4H12O17,0.021621622,8,8c_Co_1_Ch,276,O:C(:O)C1:C(Br):C(Br):C(C2:C:C(:C:C(:C:2)C2:C(Br):C(Br):C(:C(Br):C:2Br)C2:C(C3:C(Br):C(Br):C(C4:C:C(:C:C(:C:4)C4:C(Br):C(Br):C(C(:O):O):C(Br):C:4Br)C4:C(Br):C(Br):C(C(:O):O):C(Br):C:4Br):C(Br):C:3Br):C(C3:C(Br):C(Br):C(C4:C:C(:C:C(:C:4)C4:C(Br):C(Br):C(C(:O):O):C(Br):C:4Br)C4:C(Br):C(Br):C(C(:O):O):C(Br):C:4Br):C(Br):C:3Br):C(C3:C(Br):C(Br):C(C4:C:C(:C:C(:C:4)C4:C(Br):C(Br):C(C(:O):O):C(Br):C:4Br)C4:C(Br):C(Br):C(C(:O):O):C(Br):C:4Br):C(Br):C:3Br):C(C3:C(Br):C(Br):C(C4:C:C(:C:C(:C:4)C4:C(Br):C(Br):C(C(:O):O):C(Br):C:4Br)C4:C(Br):C(Br):C(C(:O):O):C(Br):C:4Br):C(Br):C:3Br):C:2C2:C(Br):C(Br):C(C3:C:C(:C:C(:C:3)C3:C(Br):C(Br):C(C(:O):O):C(Br):C:3Br)C3:C(Br):C(Br):C(C(:O):O):C(Br):C:3Br):C(Br):C:2Br)C2:C(Br):C(Br):C(C(:O):O):C(Br):C:2Br):C(Br):C:1Br,1
SR_epa_v1-6c_Mg_1_Ch_v2-6c_B_Ch_v3-4c_B_Ch_1B_2thiophene_Ch_1x1x1,0.15811,0.84124,0.368482,4687.64,1727.31,23.26142,11.72662,89431.88357,,,,1386,,270,270,108,C40H16Mg3O12S6,0.040540541,6,6c_Mg_1_Ch,"120,84",O:C(:O)C1:C:C2:C:C3:S:C(:C:C:3:C:C:2:S:1)C1:C(C2:C:C3:C:C4:S:C(:C:C:4:C:C:3:S:2)C(:O):O):C(C2:C:C3:C:C4:S:C(:C:C:4:C:C:3:S:2)C(:O):O):C(C2:C:C3:C:C4:S:C(:C:C:4:C:C:3:S:2)C(:O):O):C(C2:C:C3:C:C4:S:C(:C:C:4:C:C:3:S:2)C(:O):O):C:1C1:C:C2:C:C3:S:C(:C:C:3:C:C:2:S:1)C(:O):O___O:C(:O)C1:C:C2:C:C3:S:C(:C:C:3:C:C:2:S:1)C1:C:C(C2:C:C3:C:C4:S:C(:C:C:4:C:C:3:S:2)C(:O):O):C(:C:C:1C1:C:C2:C:C3:S:C(:C:C:3:C:C:2:S:1)C(:O):O)C1:C:C2:C:C3:S:C(:C:C:3:C:C:2:S:1)C(:O):O,1
SR_eft_v1-4c_porphyrin_Ch_v2-8c_Mn_1_Ch_v3-3c_B_Ch_1B_4F_Ch_ntn_edge_2x2x3,0.53217,0.78286,0.561596,3578.82,2009.85,12.67571,10.04181,70909.88294,,,,1860,,240,240,192,C76Cl1F16H22Mn4N36,0.026490066,8,8c_Mn_1_Ch,150,FC1:C(F):C(:C(F):C(F):C:1C1:C:C(:C:C(:C:1)C1:N:N:N:N:1)C1:N:N:N:N:1)C1:C2:C:C:C(:N:2):C(C2:C(F):C(F):C(C3:C:C(:C:C(:C:3)C3:N:N:N:N:3)C3:N:N:N:N:3):C(F):C:2F):C2:C:C:C(:[NH]:2):C(C2:C(F):C(F):C(C3:C:C(:C:C(:C:3)C3:N:N:N:N:3)C3:N:N:N:N:3):C(F):C:2F):C2:C:C:C(:N:2):C(C2:C(F):C(F):C(C3:C:C(:C:C(:C:3)C3:N:N:N:N:3)C3:N:N:N:N:3):C(F):C:2F):C2:C:C:C:1:[NH]:2,1
SR_dnl_v1-4c_Ni_1_Ch_v2-6c_Ni_1_Ch_v3-3c_B_Ch_1B_2CH3_Ch_ntn_edge_1x1x1,0.21492,0.6259,1.01217,1013.33,1025.66,9.63327,5.77478,57457.52779,,,,2912,,720,672,576,C39H28Ni5O19,0.058139535,"4,6","4c_Ni_1_Ch,6c_Ni_1_Ch","66,6",CC1:C:C(C2:C:C(:C:C(:C:2)C2:C:C(C):C(:C:C:2C)C(:O):O)C2:C:C(C):C(:C:C:2C)C(:O):O):C(C):C:C:1C(:O):O___O:C(:O)C(:O):O,1
SR_epp_v1-4c_ethene_Ch_v2-3c_B_Ch_v3-6c_Mg_1_Ch_1B_2OH_Ch_1x1x1,0.11199,0.84306,0.342778,3858.75,1322.7,31.52144,14.48951,122016.7177,,,,2592,,240,240,96,C27H16Mg1O10,0.018867925,6,6c_Mg_1_Ch,,None,1
SR_dnj_v1-8c_Co_1_Ch_v2-6c_B_Ch_v3-3c_triazine_Ch_2B_2OH_Ch_1x1x1,0.08621,0.89802,0.236978,4245.29,1006.04,38.98094,27.75094,149614.8485,,,,2070,,120,120,96,C168Co4H96N12O65,0.011730205,8,8c_Co_1_Ch,,None,1
SR_epc_v1-6c_Al_1_Ch_v2-4c_bicyclooctane_Ch_v3-4c_B_Ch_1B_2CH3_Ch_ntn_edge_1x1x2,0.22461,0.66596,0.71116,2001,1423.03,14.01135,11.37854,33698.9598,,,,1600,,240,240,192,Al3C48H36O13,0.030927835,6,6c_Al_1_Ch,"84,24",CC1:C:C(:C(C):C:C:1C(:O):O)C1:C:C(C2:C:C(C):C(:C:C:2C)C(:O):O):C(:C:C:1C1:C:C(C):C(:C:C:1C)C(:O):O)C1:C:C(C):C(:C:C:1C)C(:O):O___O:C(:O)C1=CC2(C=C(C(:O):O)C1C(=C2)C(:O):O)C(:O):O,1
SR_dni_v1-8c_Co_1_Ch_v2-3c_triazine_Ch_v3-3c_B_Ch_1B_2F_Ch_1x1x1,0.11207,0.81276,0.470384,3453.83,1624.63,26.46451,6.11457,49847.43131,,,,1158,,120,120,96,C108Co4F24H36N4O17,0.021164021,8,8c_Co_1_Ch,141,O:C(:O)C1:C:C(F):C(:C:C:1F)C1:C:C(:C:C(:C:1)C1:C:C(F):C(:C:C:1F)C1:N:C(:N:C(:N:1)C1:C:C(F):C(:C:C:1F)C1:C:C(:C:C(:C:1)C1:C:C(F):C(:C:C:1F)C(:O):O)C1:C:C(F):C(:C:C:1F)C(:O):O)C1:C:C(F):C(:C:C:1F)C1:C:C(:C:C(:C:1)C1:C:C(F):C(:C:C:1F)C(:O):O)C1:C:C(F):C(:C:C:1F)C(:O):O)C1:C:C(F):C(:C:C:1F)C(:O):O,1
SR_dnr_v1-4c_B_Ch_v2-4c_V_1_Ch_v3-3c_pyrrole_Ch_1B_2NH2_Ch_1x1x2,0.0944,0.84788,0.343745,4185.73,1438.82,35.68806,34.85068,74420.05002,,,,1392,,108,96,96,C51H41N14O8V2,0.01754386,4,4c_V_1_Ch,228,NC1:C:C(:C(N):C:C:1C(:O):O)C1:C:C:C(C2:C:C(N):C(:C:C:2N)C2:C:C(C3:C:C(N):C(:C:C:3N)C3:C:C:C(C4:C:C(N):C(:C:C:4N)C(:O):O):N:3C3:C:C(N):C(:C:C:3N)C(:O):O):C(:C:C:2C2:C:C(N):C(:C:C:2N)C2:C:C:C(C3:C:C(N):C(:C:C:3N)C(:O):O):N:2C2:C:C(N):C(:C:C:2N)C(:O):O)C2:C:C(N):C(:C:C:2N)C2:C:C:C(C3:C:C(N):C(:C:C:3N)C(:O):O):N:2C2:C:C(N):C(:C:C:2N)C(:O):O):N:1C1:C:C(N):C(:C:C:1N)C(:O):O,1
SR_dnl_v1-4c_porphyrin_Ch_v2-6c_CdZn_1_Ch_v3-3c_triazine_Ch_1B_2NH2_Ch_1x1x1,0.13805,0.8005,0.472505,4370.08,2064.89,16.46858,8.80146,170464.3043,,,,4880,,256,256,192,C144Cd3H102N42O13Zn1,0.013289037,6,6c_CdZn_1_Ch,,None,1
SR_dnl_v1-4c_Ni_1_Ch_v2-6c_Ni_1_Ch_v3-3c_B_Ch_1B_2CN_Ch_ntn_edge_1x1x1,0.20065,0.61844,1.06882,940.924,1005.68,9.40606,5.72365,57698.19806,,,,2528,,720,672,576,C39H10N6Ni5O19,0.067567568,"4,6","4c_Ni_1_Ch,6c_Ni_1_Ch","54,6",N#CC1:C:C(C2:C:C(:C:C(:C:2)C2:C:C(C#N):C(:C:C:2C#N)C(:O):O)C2:C:C(C#N):C(:C:C:2C#N)C(:O):O):C(C#N):C:C:1C(:O):O___O:C(:O)C(:O):O,1
SR_ecf_v1-8c_Co_1_Ch_1B_2CH3_Ch_2x2x2,0.20299,0.63136,0.936728,1343.16,1258.18,11.06817,5.46438,101940.7884,,,,4464,,960,960,768,C40Co4H32O17,0.04494382,8,8c_Co_1_Ch,22,CC1:C:C(C(:O):O):C(C):C:C:1C(:O):O,1
SR_dnl_v1-4c_porphyrin_Ch_v2-6c_CdZn_1_Ch_v3-3c_triazine_Ch_1B_4Br_Ch_ntn_edge_1x1x1,0.14296,0.59534,1.43331,795.32,1139.94,9.31046,5.64284,76150.13676,,,,3152,,256,256,192,Br24C108Cd3H30N18O13Zn1,0.020725389,6,6c_CdZn_1_Ch,"384,384",O:C(:O)C1:C2:C:C:C(:N:2):C2C3:C(Br):C(Br):C(C4:N:C5:N:C(:N:4)C4:C(Br):C(Br):C(:C(Br):C:4Br)C4:C6:C:C:C(:N:6):C(C(:O):O):C6:C:C:C(:[NH]:6):C(C(:O):O):C6:C:C:C(:N:6):C(C6:C(Br):C(Br):C(C7:N:C8:N:C(:N:7)C7:C(Br):C(Br):C(:C(Br):C:7Br)C7:C9:C:C:C(:N:9):C(C(:O):O):C9:C:C:C(:[NH]:9):C(C(:O):O):C9:C:C:C(:N:9):C(C9:C(Br):C(Br):C(C%10:N:C(:N:C(:N:%10)C%10:C(Br):C(Br):C(:C(Br):C:%10Br)C%10:C%11:C:C:C(:N:%11):C(C(:O):O):C%11:C:C:C(:[NH]:%11):C(C(:O):O):C%11:C:C:C(:N:%11):C(C%11:C(Br):C(Br):C(C%12:N:C(:N:C(:N:%12)C%12:C(Br):C(Br):C(:C(Br):C:%12Br)C%12:C%13:C:C:C(:N:%13):C(C(:O):O):C%13:C:C:C(:[NH]:%13):C(C(:O):O):C%13:C:C:C(:N:%13):C(C%13:C(Br):C(Br):C8:C(Br):C:%13Br):C8:C:C:C:%12:[NH]:8)C8:C(Br):C(Br):C(:C(Br):C:8Br)C(:C8:C:C:C(:N:8):C(C(:O):O):C8:C:C:C:1:[NH]:8):C1:C:C:C:2:[NH]:1):C(Br):C:%11Br):C1:C:C:C:%10:[NH]:1)C1:C(Br):C(Br):C(:C(Br):C:1Br)C1:C2:C:C:C(:N:2):C(C(:O):O):C2:C:C:C(:[NH]:2):C(C(:O):O):C2:C:C:C(:N:2):C(C2:C(Br):C(Br):C5:C(Br):C:2Br):C2:C:C:C:1:[NH]:2):C(Br):C:9Br):C1:C:C:C:7:[NH]:1):C(Br):C:6Br):C1:C:C:C:4:[NH]:1):C(Br):C:3Br___O:C(:O)C1:C2:C:C:C(:N:2):C2C3:C(Br):C(Br):C(C4:N:C5:N:C(:N:4)C4:C(Br):C(Br):C(:C(Br):C:4Br)C4:C6:C:C:C(:N:6):C(C6:C(Br):C(Br):C(C7:N:C8:N:C(:N:7)C7:C(Br):C(Br):C(:C(Br):C:7Br)C7:C9:C:C:C(:N:9):C(C(:O):O):C9:C:C:C(:[NH]:9):C(C(:O):O):C9:C:C:C(:N:9):C(C9:C(Br):C(Br):C(C%10:N:C(:N:C(:N:%10)C%10:C(Br):C(Br):C(:C(Br):C:%10Br)C%10:C%11:C:C:C(:N:%11):C(C(:O):O):C%11:C:C:C(:[NH]:%11):C(C(:O):O):C%11:C:C:C(:N:%11):C(C%11:C(Br):C(Br):C(C%12:N:C(:N:C(:N:%12)C%12:C(Br):C(Br):C(:C(Br):C:%12Br)C%12:C%13:C:C:C(:N:%13):C(C(:O):O):C%13:C:C:C(:[NH]:%13):C(C(:O):O):C%13:C:C:C(:N:%13):C(C%13:C(Br):C(Br):C8:C(Br):C:%13Br):C8:C:C:C:%12:[NH]:8)C8:C(Br):C(Br):C(:C(Br):C:8Br)C8:C%12:C:C:C(:N:%12):C(C%12:C(Br):C(Br):C5:C(Br):C:%12Br):C5:C:C:C(:[NH]:5):C(C(:O):O):C5:C:C:C(:N:5):C(C(:O):O):C5:C:C:C:8:[NH]:5):C(Br):C:%11Br):C5:C:C:C:%10:[NH]:5)C5:C(Br):C(Br):C(:C(Br):C:5Br)C(:C5:C:C:C(:N:5):C(C(:O):O):C5:C:C:C:1:[NH]:5):C1:C:C:C:2:[NH]:1):C(Br):C:9Br):C1:C:C:C:7:[NH]:1):C(Br):C:6Br):C1:C:C:C(:[NH]:1):C(C(:O):O):C1:C:C:C(:N:1):C(C(:O):O):C1:C:C:C:4:[NH]:1):C(Br):C:3Br,1
SR_epa_v1-6c_Mg_1_Ch_v2-6c_Mg_1_Ch_v3-4c_B_Ch_1B_2OH_Ch_1x1x1,0.18028,0.76628,0.532891,3457.94,1842.71,16.34725,6.96948,52976.40122,,,,1296,,360,360,144,C29H17Mg4O22,0.058823529,6,6c_Mg_1_Ch,"18,68",O:C(:O)C1:C:C(O):C(:C:C:1O)C(:O):O___O:C(:O)C1:C:C(O):C(:C:C:1O)C1:C:C(C2:C:C(O):C(:C:C:2O)C(:O):O):C(:C:C:1C1:C:C(O):C(:C:C:1O)C(:O):O)C1:C:C(O):C(:C:C:1O)C(:O):O,1
SR_epe_v1-4c_Ni_1_Ch_v2-3c_pyrrole_Ch_v3-4c_Ni_1_Ch_1B_2NH2_Ch_1x1x1,0.06318,0.924,0.184025,4475.53,823.61,50.65476,23.54728,260965.7079,,,,2856,,324,288,288,C50H40N14Ni3O12,0.025862069,4,4c_Ni_1_Ch,58,NC1:C:C(:C(N):C:C:1C(:O):O)C1:C:C:C(C2:C:C(N):C(:C:C:2N)C(:O):O):N:1C1:C:C(N):C(:C:C:1N)C(:O):O,1
SR_dnz_v1-4c_1anC_Ch_v2-6c_Ni_1_Ch_v3-3c_B_Ch_1B_4Br_Ch_1x1x1,0.17713,0.4847,2.23553,0,0,9.39782,3.49447,64415.73868,,,,2672,,288,288,192,Br48C93H8Ni4O14,0.024539877,6,6c_Ni_1_Ch,318,O:C(:O)C1:C(Br):C(Br):C(:C(Br):C:1Br)C1(C2:C(Br):C(Br):C(C(:O):O):C(Br):C:2Br)C2:C(Br):C(Br):C(C3:C:C4:C:C(:C:3)C3:C(Br):C(Br):C(:C(Br):C:3Br)C(C3:C(Br):C(Br):C(C(:O):O):C(Br):C:3Br)(C3:C(Br):C(Br):C(C(:O):O):C(Br):C:3Br)C3:C(Br):C(Br):C(C5:C:C6:C:C(:C:5)C5:C(Br):C(Br):C(:C(Br):C:5Br)C(C5:C(Br):C(Br):C(C(:O):O):C(Br):C:5Br)(C5:C(Br):C(Br):C(C(:O):O):C(Br):C:5Br)C5:C(Br):C(Br):C(C7:C:C(:C:C(:C:7)C7:C(Br):C(Br):C(:C(Br):C:7Br)C(C7:C(Br):C(Br):C(C(:O):O):C(Br):C:7Br)(C7:C(Br):C(Br):C(C(:O):O):C(Br):C:7Br)C7:C(Br):C(Br):C(C8:C:C(:C:C(:C:8)C8:C(Br):C(Br):C(:C(Br):C:8Br)C(C8:C(Br):C(Br):C(C(:O):O):C(Br):C:8Br)(C8:C(Br):C(Br):C(C(:O):O):C(Br):C:8Br)C8:C(Br):C(Br):C6:C(Br):C:8Br)C6:C(Br):C(Br):C1:C(Br):C:6Br):C(Br):C:7Br)C1:C(Br):C(Br):C(:C(Br):C:1Br)C(C1:C(Br):C(Br):C(C(:O):O):C(Br):C:1Br)(C1:C(Br):C(Br):C(C(:O):O):C(Br):C:1Br)C1:C(Br):C(Br):C4:C(Br):C:1Br):C(Br):C:5Br):C(Br):C:3Br):C(Br):C:2Br,1
SR_dpd_v1-4c_bicyclooctane_Ch_v2-4c_Ni_1_Ch_v3-4c_1anC_Ch_2B_4F_Ch_ntn_edge_1x1x1,0.13075,0.74,0.719931,2590.84,1865.23,18.73751,7.39379,89422.86564,,,,2648,,216,192,192,C189F96H16Ni6O24,0.018461538,4,4c_Ni_1_Ch,325,O:C(:O)C1:C(F):C(F):C(:C(F):C:1F)C1:C(F):C(F):C(C2=CC3(C=C(C4:C(F):C(F):C(:C(F):C:4F)C4:C(F):C(F):C(C(:O):O):C(F):C:4F)C2C(=C3)C(C2=CC3(C=C(C4:C(F):C(F):C(:C(F):C:4F)C4:C(F):C(F):C(C(:O):O):C(F):C:4F)C2C(=C3)C2:C(F):C(F):C(:C(F):C:2F)C2:C(F):C(F):C(C(:O):O):C(F):C:2F)C2:C(F):C(F):C(:C(F):C:2F)C2:C(F):C(F):C(C(:O):O):C(F):C:2F)(C2=CC3(C=C(C4:C(F):C(F):C(:C(F):C:4F)C4:C(F):C(F):C(C(:O):O):C(F):C:4F)C2C(=C3)C2:C(F):C(F):C(:C(F):C:2F)C2:C(F):C(F):C(C(:O):O):C(F):C:2F)C2:C(F):C(F):C(:C(F):C:2F)C2:C(F):C(F):C(C(:O):O):C(F):C:2F)C2=CC3(C=C(C4:C(F):C(F):C(:C(F):C:4F)C4:C(F):C(F):C(C(:O):O):C(F):C:4F)C2C(=C3)C2:C(F):C(F):C(:C(F):C:2F)C2:C(F):C(F):C(C(:O):O):C(F):C:2F)C2:C(F):C(F):C(:C(F):C:2F)C2:C(F):C(F):C(C(:O):O):C(F):C:2F)C2:C(F):C(F):C(:C(F):C:2F)C2:C(F):C(F):C(C(:O):O):C(F):C:2F):C(F):C:1F,1
SR_dni_v1-8c_Co_1_Ch_v2-3c_triazine_Ch_v3-3c_triazine_Ch_1B_2OH_Ch_ntn_edge_1x1x1,0.15463,0.7546,0.62426,2814.17,1756.78,19.22272,4.61198,30086.59374,,,,942,,120,120,96,C72Co4H32N16O33,0.026143791,8,8c_Co_1_Ch,114,O:C(:O)C1:C:C(O):C(:C:C:1O)C1:N:C(:N:C(:N:1)C1:C:C(O):C(:C:C:1O)C(:O):O)C1:N:C(:N:C(:N:1)C1:N:C(:N:C(:N:1)C1:C:C(O):C(:C:C:1O)C(:O):O)C1:C:C(O):C(:C:C:1O)C(:O):O)C1:N:C(:N:C(:N:1)C1:C:C(O):C(:C:C:1O)C(:O):O)C1:C:C(O):C(:C:C:1O)C(:O):O,1
SR_dnj_v1-8c_Co_1_Ch_v2-6c_B_Ch_v3-3c_B_Ch_1B_4H_Ch_1DoU_Ch_1x1x1,0.15435,0.82212,0.401805,3377.4,1357.06,24.04699,16.4654,41322.07725,,,,990,,120,120,96,C92Co4H52O17,0.02484472,8,8c_Co_1_Ch,240,O:C(:O)C1:C:C:C(:C:C:1)C1:C:C(C=CC2:C(C=CC3:C:C(:C:C(:C:3)C3:C:C:C(:C:C:3)C(:O):O)C3:C:C:C(:C:C:3)C(:O):O):C(C=CC3:C:C(:C:C(:C:3)C3:C:C:C(:C:C:3)C(:O):O)C3:C:C:C(:C:C:3)C(:O):O):C(C=CC3:C:C(:C:C(:C:3)C3:C:C:C(:C:C:3)C(:O):O)C3:C:C:C(:C:C:3)C(:O):O):C(C=CC3:C:C(:C:C(:C:3)C3:C:C:C(:C:C:3)C(:O):O)C3:C:C:C(:C:C:3)C(:O):O):C:2C=CC2:C:C(:C:C(:C:2)C2:C:C:C(:C:C:2)C(:O):O)C2:C:C:C(:C:C:2)C(:O):O):C:C(:C:1)C1:C:C:C(:C:C:1)C(:O):O,1
SR_epe_v1-4c_Cu_1_Ch_v2-3c_pyrrole_Ch_v3-4c_Cu_1_Ch_1B_2SH_Ch_ntn_edge_1x1x1,0.03696,0.92172,0.208826,3608.65,753.581,51.42326,25.67595,218296.0456,,,,1992,,324,288,288,C38Cu3H20N2O12S8,0.0375,4,4c_Cu_1_Ch,40,O:C(:O)C1:C:C(S):C(:C:C:1S)C1:C:C:C(C2:C:C(S):C(:C:C:2S)C(:O):O):N:1C(:O):O,1
SR_dpd_v1-4c_bicyclooctane_Ch_v2-4c_V_1_Ch_v3-4c_bicyclooctane_Ch_ntn_edge_1B_2NH2_Ch_1x1x1,0.17058,0.7855,0.537379,3140.59,1687.69,19.61797,8.52493,43482.41805,,,,1264,,216,192,192,C38H22N4O12V3,0.039473684,4,4c_V_1_Ch,152,NC1:C:C(:C(N):C:C:1C1=CC2(C=C(C3:C:C(N):C(:C:C:3N)C34C=C(C(:O):O)C(C(=C3)C(:O):O)C(=C4)C(:O):O)C1C(=C2)C1:C:C(N):C(:C:C:1N)C12C=C(C(:O):O)C(C(=C1)C(:O):O)C(=C2)C(:O):O)C1:C:C(N):C(:C:C:1N)C12C=C(C(:O):O)C(C(=C1)C(:O):O)C(=C2)C(:O):O)C12C=C(C(:O):O)C(C(=C1)C(:O):O)C(=C2)C(:O):O,1
SR_epa_v1-6c_B_Ch_v2-6c_Mg_1_Ch_v3-4c_B_Ch_1B_2OH_Ch_2x2x1,0.49478,0.5011,1.09015,0,0,10.11518,2.35508,64867.00498,,,,3672,,360,360,144,C26H14Mg1O10,0.02,6,6c_Mg_1_Ch,,None,1
SR_eps_v1-3c_B_Ch_v2-8c_Co_2_Ch_v3-4c_porphyrin_Ch_1B_4F_Ch_ntn_edge_2x2x2,0.36064,0.59508,1.0274,0,0,10.36818,3.14813,77885.41825,,,,3912,,480,480,384,C84Cl1Co4F16H30N28,0.025157233,8,8c_Co_2_Ch,158,FC1:C(F):C(:C(F):C(F):C:1C1:C:C(:C:C(:C:1)C1C:N:N:N:1)C1C:N:N:N:1)C1:C2:C:C:C(:N:2):C(C2:C(F):C(F):C(C3:C:C(:C:C(:C:3)C3C:N:N:N:3)C3C:N:N:N:3):C(F):C:2F):C2:C:C:C(:[NH]:2):C(C2:C(F):C(F):C(C3:C:C(:C:C(:C:3)C3C:N:N:N:3)C3C:N:N:N:3):C(F):C:2F):C2:C:C:C(:N:2):C(C2:C(F):C(F):C(C3:C:C(:C:C(:C:3)C3C:N:N:N:3)C3C:N:N:N:3):C(F):C:2F):C2:C:C:C:1:[NH]:2,1
SR_ecf_v1-8c_Co_1_Ch_1B_2Br_Ch_2x2x2,0.19249,0.61992,1.40393,850.814,1194.48,11.36814,4.84573,102538.1934,,,,3312,,960,960,768,Br8C32Co4H8O17,0.061538462,8,8c_Co_1_Ch,16,O:C(:O)C1:C:C(Br):C(:C:C:1Br)C(:O):O,1
SR_eft_v1-4c_porphyrin_Ch_v2-8c_Co_2_Ch_v3-3c_pyrrole_Ch_1B_2NH2_Ch_1x1x2,0.12378,0.78364,0.476709,4162.16,1984.14,12.4389,10.03359,19244.5306,,,,566,,40,40,32,C124Cl1Co4H98N56,0.014336918,8,8c_Co_2_Ch,278,NC1:C:C(:C(N):C:C:1C1C:N:N:N:1)C1:C:C:C(C2:C:C(N):C(:C:C:2N)C2:C3:C:C:C(:N:3):C(C3:C:C(N):C(:C:C:3N)C3:C:C:C(C4:C:C(N):C(:C:C:4N)C4C:N:N:N:4):N:3C3:C:C(N):C(:C:C:3N)C3C:N:N:N:3):C3:C:C:C(:[NH]:3):C(C3:C:C(N):C(:C:C:3N)C3:C:C:C(C4:C:C(N):C(:C:C:4N)C4C:N:N:N:4):N:3C3:C:C(N):C(:C:C:3N)C3C:N:N:N:3):C3:C:C:C(:N:3):C(C3:C:C(N):C(:C:C:3N)C3:C:C:C(C4:C:C(N):C(:C:C:4N)C4C:N:N:N:4):N:3C3:C:C(N):C(:C:C:3N)C3C:N:N:N:3):C3:C:C:C:2:[NH]:3):N:1C1:C:C(N):C(:C:C:1N)C1C:N:N:N:1,1
SR_epa_v1-6c_Mg_1_Ch_v2-6c_Mg_1_Ch_v3-4c_pyrene_Ch_1B_4Br_Ch_1x1x1,0.23411,0.74968,0.873755,2009.95,1756.2,18.4065,7.6956,68545.47664,,,,1314,,360,360,144,Br12C34H7Mg4O16,0.057971014,6,6c_Mg_1_Ch,"74,16",O:C(:O)C1:C(Br):C(Br):C(:C(Br):C:1Br)C1:C:C(C2:C(Br):C(Br):C(C(:O):O):C(Br):C:2Br):C2:C:C:C3:C(:C:C(C4:C(Br):C(Br):C(C(:O):O):C(Br):C:4Br):C4:C:C:C:1:C:2:C:4:3)C1:C(Br):C(Br):C(C(:O):O):C(Br):C:1Br___O:C(:O)C1:C(Br):C(Br):C(C(:O):O):C(Br):C:1Br,1
SR_ecf_v1-8c_Mn_1_Ch_1B_2SH_Ch_1x1x1,0.14086,0.77514,0.590435,3130.66,1848.45,17.57381,7.8962,26504.60899,,,,558,,120,120,96,C32Cl1H16Mn4N32S8,0.04494382,8,8c_Mn_1_Ch,22,SC1:C:C(C2:N:N:N:N:2):C(S):C:C:1C1:N:N:N:N:1,1
SR_eft_v1-4c_porphyrin_Ch_v2-8c_Co_1_Ch_v3-3c_triazine_Ch_1B_2NO2_Ch_2x1x2,0.14488,0.75874,0.602198,2996.08,1804.23,12.42702,9.54437,35522.57713,,,,1020,,80,80,64,C112Co4H34N40O65,0.015936255,8,8c_Co_1_Ch,250,O:C(:O)C1:C:C(:C(:C:C:1N(:O):O)C1:N:C(:N:C(:N:1)C1:C:C(:C(:C:C:1N(:O):O)C1:C2:C:C:C(:N:2):C(C2:C:C(:C(:C:C:2N(:O):O)C2:N:C(:N:C(:N:2)C2:C:C(:C(:C:C:2N(:O):O)C(:O):O)N(:O):O)C2:C:C(:C(:C:C:2N(:O):O)C(:O):O)N(:O):O)N(:O):O):C2:C:C:C(:[NH]:2):C(C2:C:C(:C(:C:C:2N(:O):O)C2:N:C(:N:C(:N:2)C2:C:C(:C(:C:C:2N(:O):O)C(:O):O)N(:O):O)C2:C:C(:C(:C:C:2N(:O):O)C(:O):O)N(:O):O)N(:O):O):C2:C:C:C(:N:2):C(C2:C:C(:C(:C:C:2N(:O):O)C2:N:C(:N:C(:N:2)C2:C:C(:C(:C:C:2N(:O):O)C(:O):O)N(:O):O)C2:C:C(:C(:C:C:2N(:O):O)C(:O):O)N(:O):O)N(:O):O):C2:C:C:C:1:[NH]:2)N(:O):O)C1:C:C(:C(:C:C:1N(:O):O)C(:O):O)N(:O):O)N(:O):O,1
SR_dna_v1-8c_Co_1_Ch_v2-6c_B_Ch_v3-3c_triazine_Ch_ntn_edge_1TrU_Ch_1x1x1,0.14539,0.7559,0.668812,2520.48,1685.73,22.43019,9.45479,34502.35631,,,,876,,240,240,192,C40Co4N12O17,0.057971014,8,8c_Co_1_Ch,102,O:C(:O)C#CC1:N:C(C#CC(:O):O):N:C(:N:1)C1:C(C2:N:C(C#CC(:O):O):N:C(C#CC(:O):O):N:2):C(C2:N:C(C#CC(:O):O):N:C(C#CC(:O):O):N:2):C(C2:N:C(C#CC(:O):O):N:C(C#CC(:O):O):N:2):C(C2:N:C(C#CC(:O):O):N:C(C#CC(:O):O):N:2):C:1C1:N:C(C#CC(:O):O):N:C(C#CC(:O):O):N:1,1
SR_epa_v1-6c_Mg_1_Ch_v2-6c_B_Ch_v3-4c_pyrene_Ch_2B_2CH3_Ch_1x1x1,0.15401,0.81924,0.347136,5230.04,1815.53,19.55916,10.00176,107243.9186,,,,2376,,270,270,108,C21H18Mg1O4,0.023255814,6,6c_Mg_1_Ch,"216,162",CC1:C:C(:C(C):C:C:1C(:O):O)C1:C:C(C):C(:C:C:1C)C1:C(C2:C:C(C):C(:C:C:2C)C2:C:C(C):C(:C:C:2C)C(:O):O):C(C2:C:C(C):C(:C:C:2C)C2:C:C(C):C(:C:C:2C)C(:O):O):C(C2:C:C(C):C(:C:C:2C)C2:C:C(C):C(:C:C:2C)C(:O):O):C(C2:C:C(C):C(:C:C:2C)C2:C:C(C):C(:C:C:2C)C(:O):O):C:1C1:C:C(C):C(:C:C:1C)C1:C:C(C):C(:C:C:1C)C(:O):O___CC1:C:C(:C(C):C:C:1C(:O):O)C1:C:C(C):C(:C:C:1C)C1:C:C(C2:C:C(C):C(:C:C:2C)C2:C:C(C):C(:C:C:2C)C(:O):O):C2:C:C:C3:C(:C:C(C4:C:C(C):C(:C:C:4C)C4:C:C(C):C(:C:C:4C)C(:O):O):C4:C:C:C:1:C:2:C:4:3)C1:C:C(C):C(:C:C:1C)C1:C:C(C):C(:C:C:1C)C(:O):O,1
SR_eft_v1-4c_porphyrin_Ch_v2-8c_Co_1_Ch_v3-3c_B_Ch_1B_2NH2_Ch_2x1x2,0.12933,0.79532,0.455841,3774.6,1720.61,13.63255,10.71582,36246.65031,,,,1068,,80,80,64,C124Co4H94N28O17,0.015209125,8,8c_Co_1_Ch,262,NC1:C:C(C2:C:C(:C:C(:C:2)C2:C:C(N):C(:C:C:2N)C2:C3:C:C:C(:N:3):C(C3:C:C(N):C(:C:C:3N)C3:C:C(:C:C(:C:3)C3:C:C(N):C(:C:C:3N)C(:O):O)C3:C:C(N):C(:C:C:3N)C(:O):O):C3:C:C:C(:[NH]:3):C(C3:C:C(N):C(:C:C:3N)C3:C:C(:C:C(:C:3)C3:C:C(N):C(:C:C:3N)C(:O):O)C3:C:C(N):C(:C:C:3N)C(:O):O):C3:C:C:C(:N:3):C(C3:C:C(N):C(:C:C:3N)C3:C:C(:C:C(:C:3)C3:C:C(N):C(:C:C:3N)C(:O):O)C3:C:C(N):C(:C:C:3N)C(:O):O):C3:C:C:C:2:[NH]:3)C2:C:C(N):C(:C:C:2N)C(:O):O):C(N):C:C:1C(:O):O,1
SR_ecf_v1-8c_Co_1_Ch_1B_2CF3_Ch_2x2x2,0.17535,0.57032,1.30418,814.925,1062.81,10.87108,4.23518,102632.7502,,,,4464,,960,960,768,C40Co4F24H8O17,0.04494382,8,8c_Co_1_Ch,22,O:C(:O)C1:C:C(:C(:C:C:1C(F)(F)F)C(:O):O)C(F)(F)F,1
SR_dnr_v1-4c_pyrene_Ch_v2-4c_Cu_1_Ch_v3-3c_triazine_Ch_1B_2F_Ch_ntn_edge_1x1x3,0.42739,0.8545,0.395136,3194.85,1262.4,33.41278,32.83372,69267.18817,,,,1026,,162,144,144,C30Cu2F4H7N6O8,0.036363636,4,4c_Cu_1_Ch,110,O:C(:O)C1:N:C(:N:C(:N:1)C1:C:C(F):C(:C:C:1F)C1:C:C(C2:C:C(F):C(:C:C:2F)C2:N:C(:N:C(:N:2)C(:O):O)C(:O):O):C2:C:C:C3:C(:C:C(C4:C:C(F):C(:C:C:4F)C4:N:C(:N:C(:N:4)C(:O):O)C(:O):O):C4:C:C:C:1:C:2:C:4:3)C1:C:C(F):C(:C:C:1F)C1:N:C(:N:C(:N:1)C(:O):O)C(:O):O)C(:O):O,1
SR_dnj_v1-8c_Co_1_Ch_v2-6c_B_Ch_v3-3c_B_Ch_ntn_edge_2x2x2,0.26803,0.64066,1.01341,1471.32,1491.05,12.7092,9.08014,74893.49332,,,,3312,,960,960,768,C36Co4H12O17,0.061538462,8,8c_Co_1_Ch,96,O:C(:O)C1:C:C(:C:C(:C:1)C1:C(C2:C:C(:C:C(:C:2)C(:O):O)C(:O):O):C(C2:C:C(:C:C(:C:2)C(:O):O)C(:O):O):C(C2:C:C(:C:C(:C:2)C(:O):O)C(:O):O):C(C2:C:C(:C:C(:C:2)C(:O):O)C(:O):O):C:1C1:C:C(:C:C(:C:1)C(:O):O)C(:O):O)C(:O):O,1
SR_edq_v1-3c_B_Ch_v2-6c_Fe_1_Ch_1B_4CN_Ch_1x1x1,0.26978,0.75682,0.544828,3580.15,1950.56,14.75894,7.2409,48617.3,,,,1232,,120,120,96,C99Fe3H9N30O13,0.01986755,6,6c_Fe_1_Ch,100,N#CC1:C(C#N):C(C2:C:C(:C:C(:C:2)C2:C(C#N):C(C#N):C(C3:C:C(:C:C(:C:3)C3:C(C#N):C(C#N):C(C(:O):O):C(C#N):C:3C#N)C3:C(C#N):C(C#N):C(C(:O):O):C(C#N):C:3C#N):C(C#N):C:2C#N)C2:C(C#N):C(C#N):C(C(:O):O):C(C#N):C:2C#N):C(C#N):C(C#N):C:1C(:O):O,1
SR_eft_v1-4c_porphyrin_Ch_v2-8c_Mn_1_Ch_v3-3c_pyrrole_Ch_ntn_edge_1B_4F_Ch_2x2x2,0.24955,0.7143,0.751705,2711.47,2038.23,8.98559,7.62233,46724.48244,,,,1496,,160,160,128,C92Cl1F32H18Mn4N40,0.021857923,8,8c_Mn_1_Ch,182,FC1:C(F):C(:C(F):C(F):C:1C1:N:N:N:N:1)C1:C:C:C(C2:C3:C:C:C(:N:3):C(C3:C:C:C(C4:C(F):C(F):C(C5:N:N:N:N:5):C(F):C:4F):N:3C3:C(F):C(F):C(C4:N:N:N:N:4):C(F):C:3F):C3:C:C:C(:[NH]:3):C(C3:C:C:C(C4:C(F):C(F):C(C5:N:N:N:N:5):C(F):C:4F):N:3C3:C(F):C(F):C(C4:N:N:N:N:4):C(F):C:3F):C3:C:C:C(:N:3):C(C3:C:C:C(C4:C(F):C(F):C(C5:N:N:N:N:5):C(F):C:4F):N:3C3:C(F):C(F):C(C4:N:N:N:N:4):C(F):C:3F):C3:C:C:C:2:[NH]:3):N:1C1:C(F):C(F):C(C2:N:N:N:N:2):C(F):C:1F,1
SR_epa_v1-6c_Mg_1_Ch_v2-6c_B_Ch_v3-4c_B_Ch_1DoU_Ch_ntn_edge_2x2x1,0.6592,0.56406,1.01153,1268.18,1282.81,7.51333,4.42827,56997.63312,,,,2376,,1080,1080,432,C4H2Mg1O4,0.1,6,6c_Mg_1_Ch,"20,48",O:C(:O)C1:C:C(C(:O):O):C(:C:C:1C(:O):O)C(:O):O___O:C(:O)C=CC1:C(C=CC(:O):O):C(C=CC(:O):O):C(C=CC(:O):O):C(C=CC(:O):O):C:1C=CC(:O):O,1