name,k,VF,density,ASA_grav,ASA_vol,LPD,PLD,volume,,,,N_atoms,,N_metal_containing_bonds,N_metal_nonmetal_bonds,N_metal_linker_bonds,formula,metal_nonmetal_ratio,metal_node_connectivity,metal_node_name,N_atoms_per_linker,linker_SMILES,N_ccs
SR_dnj_v1-8c_Co_1_Ch_v2-6c_B_Ch_v3-3c_B_Ch_1TrU_Ch_2TrU_Ch_1x1x1,0.13274,0.88584,0.270301,4458.22,1205.06,29.35784,21.63769,52807.12972,,,,654,,120,120,96,C76Co4H12O17,0.038095238,8,8c_Co_1_Ch,156,O:C(:O)C#CC#CC1:C:C(C#CC#CC(:O):O):C:C(C#CC2:C(C#CC3:C:C(C#CC#CC(:O):O):C:C(C#CC#CC(:O):O):C:3):C(C#CC3:C:C(C#CC#CC(:O):O):C:C(C#CC#CC(:O):O):C:3):C(C#CC3:C:C(C#CC#CC(:O):O):C:C(C#CC#CC(:O):O):C:3):C(C#CC3:C:C(C#CC#CC(:O):O):C:C(C#CC#CC(:O):O):C:3):C:2C#CC2:C:C(C#CC#CC(:O):O):C:C(C#CC#CC(:O):O):C:2):C:1,1
SR_dnf_v1-6c_Mg_1_Ch_v2-6c_B_Ch_v3-3c_B_Ch_1B_2Br_Ch_1x1x1,0.15191,0.83872,0.50517,2698.59,1363.25,25.37559,20.69104,320431.2403,,,,5376,,960,960,384,Br6C29H11Mg2O8,0.037037037,6,6c_Mg_1_Ch,276,O:C(:O)C1:C:C(Br):C(:C:C:1Br)C1:C:C(:C:C(:C:1)C1:C:C(Br):C(:C:C:1Br)C1:C(C2:C:C(Br):C(:C:C:2Br)C2:C:C(:C:C(:C:2)C2:C:C(Br):C(:C:C:2Br)C(:O):O)C2:C:C(Br):C(:C:C:2Br)C(:O):O):C(C2:C:C(Br):C(:C:C:2Br)C2:C:C(:C:C(:C:2)C2:C:C(Br):C(:C:C:2Br)C(:O):O)C2:C:C(Br):C(:C:C:2Br)C(:O):O):C(C2:C:C(Br):C(:C:C:2Br)C2:C:C(:C:C(:C:2)C2:C:C(Br):C(:C:C:2Br)C(:O):O)C2:C:C(Br):C(:C:C:2Br)C(:O):O):C(C2:C:C(Br):C(:C:C:2Br)C2:C:C(:C:C(:C:2)C2:C:C(Br):C(:C:C:2Br)C(:O):O)C2:C:C(Br):C(:C:C:2Br)C(:O):O):C:1C1:C:C(Br):C(:C:C:1Br)C1:C:C(:C:C(:C:1)C1:C:C(Br):C(:C:C:1Br)C(:O):O)C1:C:C(Br):C(:C:C:1Br)C(:O):O)C1:C:C(Br):C(:C:C:1Br)C(:O):O,1
SR_dni_v1-8c_Co_1_Ch_v2-3c_B_Ch_v3-3c_B_Ch_2B_fused_Ch_1x1x1,0.13224,0.87246,0.273645,5211.53,1426.11,32.86551,9.93368,91703.70475,,,,1614,,120,120,96,C160Co4H88O17,0.01509434,8,8c_Co_1_Ch,198,O:C(:O)C1:C:C:C2:C:C(:C:C:C:2:C:1)C1:C:C(:C:C(:C:1)C1:C:C:C2:C:C(:C:C:C:2:C:1)C1:C:C(:C:C(:C:1)C1:C:C:C2:C:C(:C:C:C:2:C:1)C1:C:C(:C:C(:C:1)C1:C:C:C2:C:C(:C:C:C:2:C:1)C(:O):O)C1:C:C:C2:C:C(:C:C:C:2:C:1)C(:O):O)C1:C:C:C2:C:C(:C:C:C:2:C:1)C1:C:C(:C:C(:C:1)C1:C:C:C2:C:C(:C:C:C:2:C:1)C(:O):O)C1:C:C:C2:C:C(:C:C:C:2:C:1)C(:O):O)C1:C:C:C2:C:C(:C:C:C:2:C:1)C(:O):O,1
SR_dnr_v1-4c_B_Ch_v2-4c_Cu_1_Ch_v3-3c_Cu_imadazoline_Ch_1DoU_Ch_1x1x2,0.07181,0.93926,0.182411,5206.59,949.74,53.75342,52.32392,160838.3304,,,,1080,,252,240,240,C37Cu8H25N12O8,0.097560976,"3,4","3c_Cu_imadazoline_Ch,4c_Cu_1_Ch","52,14",C(=CC1:C:C(C=CC2:C:N:N:C:2):C(C=CC2:C:N:N:C:2):C:C:1C=CC1:C:N:N:C:1)C1:C:N:N:C:1___O:C(:O)C=CC1:C:N:N:C:1,1
SR_epc_v1-6c_Al_1_Ch_v2-4c_1anC_Ch_v3-4c_porphyrin_Ch_2B_2Br_Ch_1x1x1,0.07455,0.86318,0.455704,3041.93,1386.22,31.34543,21.73194,101447.3379,,,,1412,,120,120,96,Al6Br48C197H68N8O26,0.017291066,6,6c_Al_1_Ch,"93,126",O:C(:O)C1:C:C(Br):C(:C:C:1Br)C1:C:C(Br):C(:C:C:1Br)C(C1:C:C(Br):C(:C:C:1Br)C1:C:C(Br):C(:C:C:1Br)C(:O):O)(C1:C:C(Br):C(:C:C:1Br)C1:C:C(Br):C(:C:C:1Br)C(:O):O)C1:C:C(Br):C(:C:C:1Br)C1:C:C(Br):C(:C:C:1Br)C(:O):O___O:C(:O)C1:C:C(Br):C(:C:C:1Br)C1:C:C(Br):C(:C:C:1Br)C1:C2:C:C:C(:N:2):C(C2:C:C(Br):C(:C:C:2Br)C2:C:C(Br):C(:C:C:2Br)C(:O):O):C2:C:C:C(:[NH]:2):C(C2:C:C(Br):C(:C:C:2Br)C2:C:C(Br):C(:C:C:2Br)C(:O):O):C2:C:C:C(:N:2):C(C2:C:C(Br):C(:C:C:2Br)C2:C:C(Br):C(:C:C:2Br)C(:O):O):C2:C:C:C:1:[NH]:2,1
SR_dpb_v1-3c_B_Ch_v2-6c_Mg_1_Ch_v3-3c_B_Ch_1B_4CN_Ch_ntn_edge_1x1x1,0.19843,0.60456,0.874676,1126.28,985.133,11.17141,4.80573,91661.73749,,,,4032,,960,960,384,C11H3Mg1N2O4,0.05,6,6c_Mg_1_Ch,96,N#CC1:C(C#N):C(C2:C:C(:C:C(:C:2)C2:C(C#N):C(C#N):C(C3:C:C(:C:C(:C:3)C(:O):O)C(:O):O):C(C#N):C:2C#N)C2:C(C#N):C(C#N):C(C3:C:C(:C:C(:C:3)C(:O):O)C(:O):O):C(C#N):C:2C#N):C(C#N):C(C#N):C:1C1:C:C(:C:C(:C:1)C(:O):O)C(:O):O,1
SR_dnj_v1-8c_Co_1_Ch_v2-6c_B_Ch_v3-3c_triazine_Ch_2B_2CF3_Ch_1x1x1,0.0577,0.8529,0.401976,2568.97,1032.66,36.76605,25.60938,150064.3975,,,,2646,,120,120,96,C216Co4F144H48N12O17,0.009153318,8,8c_Co_1_Ch,,None,1
SR_eps_v1-3c_triazine_Ch_v2-8c_Co_2_Ch_v3-4c_porphyrin_Ch_2B_4F_Ch_1x1x1,0.08216,0.90218,0.263319,4673.3,1230.57,36.25887,14.64479,94205.98227,,,,1053,,60,60,48,C192Cl1Co4F96H18N40,0.011527378,8,8c_Co_2_Ch,346,FC1:C(F):C(:C(F):C(F):C:1C1C:N:N:N:1)C1:C(F):C(F):C(C2:N:C(:N:C(:N:2)C2:C(F):C(F):C(:C(F):C:2F)C2:C(F):C(F):C(:C(F):C:2F)C2:C3:C:C:C(:N:3):C(C3:C(F):C(F):C(:C(F):C:3F)C3:C(F):C(F):C(C4:N:C(:N:C(:N:4)C4:C(F):C(F):C(:C(F):C:4F)C4:C(F):C(F):C(C5C:N:N:N:5):C(F):C:4F)C4:C(F):C(F):C(:C(F):C:4F)C4:C(F):C(F):C(C5C:N:N:N:5):C(F):C:4F):C(F):C:3F):C3:C:C:C(:[NH]:3):C(C3:C(F):C(F):C(:C(F):C:3F)C3:C(F):C(F):C(C4:N:C(:N:C(:N:4)C4:C(F):C(F):C(:C(F):C:4F)C4:C(F):C(F):C(C5C:N:N:N:5):C(F):C:4F)C4:C(F):C(F):C(:C(F):C:4F)C4:C(F):C(F):C(C5C:N:N:N:5):C(F):C:4F):C(F):C:3F):C3:C:C:C(:N:3):C(C3:C(F):C(F):C(:C(F):C:3F)C3:C(F):C(F):C(C4:N:C(:N:C(:N:4)C4:C(F):C(F):C(:C(F):C:4F)C4:C(F):C(F):C(C5C:N:N:N:5):C(F):C:4F)C4:C(F):C(F):C(:C(F):C:4F)C4:C(F):C(F):C(C5C:N:N:N:5):C(F):C:4F):C(F):C:3F):C3:C:C:C:2:[NH]:3)C2:C(F):C(F):C(:C(F):C:2F)C2:C(F):C(F):C(C3C:N:N:N:3):C(F):C:2F):C(F):C:1F,1
SR_dnj_v1-8c_Co_1_Ch_v2-6c_B_Ch_v3-3c_pyrrole_Ch_2B_2CN_Ch_1x1x1,0.08357,0.85612,0.311658,3788.54,1180.73,33.458,22.76327,125804.6305,,,,2094,,120,120,96,C220Co4H56N52O17,0.011594203,8,8c_Co_1_Ch,,None,1
SR_dnj_v1-8c_Co_1_Ch_v2-6c_B_Ch_v3-3c_B_Ch_2TrU_Ch_1x1x1,0.09606,0.90332,0.223843,5384.69,1205.32,32.45076,22.85929,68044.50826,,,,702,,120,120,96,C84Co4H12O17,0.03539823,8,8c_Co_1_Ch,168,O:C(:O)C#CC#CC1:C:C(C#CC#CC(:O):O):C:C(C#CC#CC2:C(C#CC#CC3:C:C(C#CC#CC(:O):O):C:C(C#CC#CC(:O):O):C:3):C(C#CC#CC3:C:C(C#CC#CC(:O):O):C:C(C#CC#CC(:O):O):C:3):C(C#CC#CC3:C:C(C#CC#CC(:O):O):C:C(C#CC#CC(:O):O):C:3):C(C#CC#CC3:C:C(C#CC#CC(:O):O):C:C(C#CC#CC(:O):O):C:3):C:2C#CC#CC2:C:C(C#CC#CC(:O):O):C:C(C#CC#CC(:O):O):C:2):C:1,1
SR_dpe_v1-6c_Zr_1_Ch_v2-8c_Zr_1_Ch_v3-4c_porphyrin_Ch_1B_2OH_Ch_1x1x1,0.13959,0.73168,0.753105,2660.32,2003.5,19.04867,6.04608,43590.74747,,,,1494,,528,528,144,C240H238N12O224Zr33,0.046218487,"6,8","6c_Zr_1_Ch,8c_Zr_1_Ch","18,94",O:C(:O)C1:C:C(O):C(:C:C:1O)C(:O):O___O:C(:O)C1:C:C(O):C(:C:C:1O)C1:C2:C:C:C(:N:2):C(C2:C:C(O):C(:C:C:2O)C(:O):O):C2:C:C:C(:[NH]:2):C(C2:C:C(O):C(:C:C:2O)C(:O):O):C2:C:C:C(:N:2):C(C2:C:C(O):C(:C:C:2O)C(:O):O):C2:C:C:C:1:[NH]:2,1
SR_epe_v1-4c_Ni_1_Ch_v2-3c_pyrrole_Ch_v3-4c_Ni_1_Ch_1B_2OH_Ch_ntn_edge_1x1x1,0.04269,0.92622,0.191122,3818.47,729.796,51.10438,25.00825,208684.9101,,,,1992,,324,288,288,C38H20N2Ni3O20,0.0375,4,4c_Ni_1_Ch,40,O:C(:O)C1:C:C(O):C(:C:C:1O)C1:C:C:C(C2:C:C(O):C(:C:C:2O)C(:O):O):N:1C(:O):O,1
SR_dnj_v1-8c_Co_1_Ch_v2-6c_B_Ch_v3-3c_B_Ch_1B_4F_Ch_1x1x1,0.12732,0.80672,0.52894,2341.1,1238.3,24.78773,18.32517,51432.02612,,,,1134,,120,120,96,C108Co4F48H12O17,0.021621622,8,8c_Co_1_Ch,276,O:C(:O)C1:C(F):C(F):C(C2:C:C(:C:C(:C:2)C2:C(F):C(F):C(:C(F):C:2F)C2:C(C3:C(F):C(F):C(C4:C:C(:C:C(:C:4)C4:C(F):C(F):C(C(:O):O):C(F):C:4F)C4:C(F):C(F):C(C(:O):O):C(F):C:4F):C(F):C:3F):C(C3:C(F):C(F):C(C4:C:C(:C:C(:C:4)C4:C(F):C(F):C(C(:O):O):C(F):C:4F)C4:C(F):C(F):C(C(:O):O):C(F):C:4F):C(F):C:3F):C(C3:C(F):C(F):C(C4:C:C(:C:C(:C:4)C4:C(F):C(F):C(C(:O):O):C(F):C:4F)C4:C(F):C(F):C(C(:O):O):C(F):C:4F):C(F):C:3F):C(C3:C(F):C(F):C(C4:C:C(:C:C(:C:4)C4:C(F):C(F):C(C(:O):O):C(F):C:4F)C4:C(F):C(F):C(C(:O):O):C(F):C:4F):C(F):C:3F):C:2C2:C(F):C(F):C(C3:C:C(:C:C(:C:3)C3:C(F):C(F):C(C(:O):O):C(F):C:3F)C3:C(F):C(F):C(C(:O):O):C(F):C:3F):C(F):C:2F)C2:C(F):C(F):C(C(:O):O):C(F):C:2F):C(F):C:1F,1
SR_eps_v1-3c_pyrrole_Ch_v2-8c_Mn_1_Ch_v3-4c_porphyrin_Ch_ntn_edge_1B_2CF3_Ch_1x1x1,0.08956,0.73768,0.683109,2219.87,1516.42,19.77777,8.2911,22978.45255,,,,705,,60,60,48,C108Cl1F48H34Mn4N40,0.017316017,8,8c_Mn_1_Ch,230,FC(F)(F)C1:C:C(:C(:C:C:1C1:N:N:N:N:1)C(F)(F)F)C1:C:C:C(C2:C:C(:C(:C:C:2C(F)(F)F)C2:N:N:N:N:2)C(F)(F)F):N:1C1:C2:C:C:C(:N:2):C(:C2:C:C:C(:[NH]:2):C(:C2:C:C:C(:N:2):C(:C2:C:C:C:1:[NH]:2)N1:C(:C:C:C:1C1:C:C(:C(:C:C:1C(F)(F)F)C1:N:N:N:N:1)C(F)(F)F)C1:C:C(:C(:C:C:1C(F)(F)F)C1:N:N:N:N:1)C(F)(F)F)N1:C(:C:C:C:1C1:C:C(:C(:C:C:1C(F)(F)F)C1:N:N:N:N:1)C(F)(F)F)C1:C:C(:C(:C:C:1C(F)(F)F)C1:N:N:N:N:1)C(F)(F)F)N1:C(:C:C:C:1C1:C:C(:C(:C:C:1C(F)(F)F)C1:N:N:N:N:1)C(F)(F)F)C1:C:C(:C(:C:C:1C(F)(F)F)C1:N:N:N:N:1)C(F)(F)F,1
SR_eps_v1-3c_pyrrole_Ch_v2-8c_Zr_1_Ch_v3-4c_porphyrin_Ch_1B_4F_Ch_1x1x1,0.09793,0.80054,0.555037,2844.45,1578.77,24.2962,8.06396,31530.93449,,,,732,,144,144,48,C58F24H17N4O16Zr3,0.025210084,8,8c_Zr_1_Ch,206,O:C(:O)C1:C(F):C(F):C(:C(F):C:1F)C1:C:C:C(C2:C(F):C(F):C(C(:O):O):C(F):C:2F):N:1C1:C(F):C(F):C(:C(F):C:1F)C1:C2:C:C:C(:N:2):C(C2:C(F):C(F):C(:C(F):C:2F)N2:C(:C:C:C:2C2:C(F):C(F):C(C(:O):O):C(F):C:2F)C2:C(F):C(F):C(C(:O):O):C(F):C:2F):C2:C:C:C(:[NH]:2):C(C2:C(F):C(F):C(:C(F):C:2F)N2:C(:C:C:C:2C2:C(F):C(F):C(C(:O):O):C(F):C:2F)C2:C(F):C(F):C(C(:O):O):C(F):C:2F):C2:C:C:C(:N:2):C(C2:C(F):C(F):C(:C(F):C:2F)N2:C(:C:C:C:2C2:C(F):C(F):C(C(:O):O):C(F):C:2F)C2:C(F):C(F):C(C(:O):O):C(F):C:2F):C2:C:C:C:1:[NH]:2,1
SR_eft_v1-4c_porphyrin_Ch_v2-8c_Zr_1_Ch_v3-3c_B_Ch_ntn_edge_1B_4F_Ch_2x2x2,0.12238,0.74636,0.695463,2678.19,1862.58,15.23429,7.64478,56592.42346,,,,1696,,384,384,128,C50F16H19N2O16Zr3,0.029126214,8,8c_Zr_1_Ch,174,O:C(:O)C1:C(F):C(F):C(C2:C:C(:C:C(:C:2)C2:C3:C:C:C(:N:3):C(C3:C:C(:C:C(:C:3)C3:C(F):C(F):C(C(:O):O):C(F):C:3F)C3:C(F):C(F):C(C(:O):O):C(F):C:3F):C3:C:C:C(:[NH]:3):C(C3:C:C(:C:C(:C:3)C3:C(F):C(F):C(C(:O):O):C(F):C:3F)C3:C(F):C(F):C(C(:O):O):C(F):C:3F):C3:C:C:C(:N:3):C(C3:C:C(:C:C(:C:3)C3:C(F):C(F):C(C(:O):O):C(F):C:3F)C3:C(F):C(F):C(C(:O):O):C(F):C:3F):C3:C:C:C:2:[NH]:3)C2:C(F):C(F):C(C(:O):O):C(F):C:2F):C(F):C:1F,1
SR_dnr_v1-4c_B_Ch_v2-4c_Cu_1_Ch_v3-3c_Cu_imadazoline_Ch_1DoU_Ch_1TrU_Ch_1x1x2,0.08549,0.9405,0.187379,5359.47,1004.25,45.72089,42.84052,156960.3419,,,,984,,252,240,240,C37Cu8H17N12O8,0.108108108,"3,4","3c_Cu_imadazoline_Ch,4c_Cu_1_Ch","52,12",C(=CC1:C:C(C=CC2:C:N:N:C:2):C(C=CC2:C:N:N:C:2):C:C:1C=CC1:C:N:N:C:1)C1:C:N:N:C:1___O:C(:O)C#CC1:C:N:N:C:1,1
SR_eft_v1-4c_porphyrin_Ch_v2-8c_Zr_1_Ch_v3-3c_triazine_Ch_1B_2NO2_Ch_2x1x2,0.10207,0.78536,0.557209,2993.23,1667.85,13.27934,11.30766,45098.98984,,,,1152,,192,192,64,C56H25N20O40Zr3,0.021276596,8,8c_Zr_1_Ch,250,O:C(:O)C1:C:C(:C(:C:C:1N(:O):O)C1:N:C(:N:C(:N:1)C1:C:C(:C(:C:C:1N(:O):O)C1:C2:C:C:C(:N:2):C(C2:C:C(:C(:C:C:2N(:O):O)C2:N:C(:N:C(:N:2)C2:C:C(:C(:C:C:2N(:O):O)C(:O):O)N(:O):O)C2:C:C(:C(:C:C:2N(:O):O)C(:O):O)N(:O):O)N(:O):O):C2:C:C:C(:[NH]:2):C(C2:C:C(:C(:C:C:2N(:O):O)C2:N:C(:N:C(:N:2)C2:C:C(:C(:C:C:2N(:O):O)C(:O):O)N(:O):O)C2:C:C(:C(:C:C:2N(:O):O)C(:O):O)N(:O):O)N(:O):O):C2:C:C:C(:N:2):C(C2:C:C(:C(:C:C:2N(:O):O)C2:N:C(:N:C(:N:2)C2:C:C(:C(:C:C:2N(:O):O)C(:O):O)N(:O):O)C2:C:C(:C(:C:C:2N(:O):O)C(:O):O)N(:O):O)N(:O):O):C2:C:C:C:1:[NH]:2)N(:O):O)C1:C:C(:C(:C:C:1N(:O):O)C(:O):O)N(:O):O)N(:O):O,1
SR_dpe_v1-6c_Zr_1_Ch_v2-8c_Zr_1_Ch_v3-4c_porphyrin_Ch_1B_2F_Ch_1x1x1,0.11349,0.73784,0.757985,2650.58,2009.1,18.60978,6.10803,43728.88413,,,,1398,,528,528,144,C240F48H190N12O176Zr33,0.04954955,"6,8","6c_Zr_1_Ch,8c_Zr_1_Ch","16,86",O:C(:O)C1:C:C(F):C(:C:C:1F)C(:O):O___O:C(:O)C1:C:C(F):C(:C:C:1F)C1:C2:C:C:C(:N:2):C(C2:C:C(F):C(:C:C:2F)C(:O):O):C2:C:C:C(:[NH]:2):C(C2:C:C(F):C(:C:C:2F)C(:O):O):C2:C:C:C(:N:2):C(C2:C:C(F):C(:C:C:2F)C(:O):O):C2:C:C:C:1:[NH]:2,1
SR_eft_v1-4c_porphyrin_Ch_v2-8c_Zr_1_Ch_v3-3c_triazine_Ch_1B_2SH_Ch_2x1x2,0.10014,0.79638,0.512448,3362.32,1723.01,14.25311,11.40466,45015.88824,,,,1056,,192,192,64,C56H37N8O16S12Zr3,0.023255814,8,8c_Zr_1_Ch,226,O:C(:O)C1:C:C(S):C(:C:C:1S)C1:N:C(:N:C(:N:1)C1:C:C(S):C(:C:C:1S)C1:C2:C:C:C(:N:2):C(C2:C:C(S):C(:C:C:2S)C2:N:C(:N:C(:N:2)C2:C:C(S):C(:C:C:2S)C(:O):O)C2:C:C(S):C(:C:C:2S)C(:O):O):C2:C:C:C(:[NH]:2):C(C2:C:C(S):C(:C:C:2S)C2:N:C(:N:C(:N:2)C2:C:C(S):C(:C:C:2S)C(:O):O)C2:C:C(S):C(:C:C:2S)C(:O):O):C2:C:C:C(:N:2):C(C2:C:C(S):C(:C:C:2S)C2:N:C(:N:C(:N:2)C2:C:C(S):C(:C:C:2S)C(:O):O)C2:C:C(S):C(:C:C:2S)C(:O):O):C2:C:C:C:1:[NH]:2)C1:C:C(S):C(:C:C:1S)C(:O):O,1
SR_dnu_v1-4c_ethene_Ch_v2-8c_Mn_1_Ch_v3-4c_ethene_Ch_1B_2SH_Ch_1x1x1,0.22982,0.5913,0.978354,1251.73,1224.64,14.30714,3.9303,64919.93991,,,,2988,,240,240,192,C116Cl1H64Mn4N32S32,0.016326531,8,8c_Mn_1_Ch,,None,1
SR_dni_v1-8c_Co_1_Ch_v2-3c_triazine_Ch_v3-3c_triazine_Ch_1B_4F_Ch_1x1x1,0.11442,0.79752,0.574733,2877.06,1653.54,25.25399,6.37156,48501.14498,,,,1086,,120,120,96,C96Co4F48N16O17,0.02259887,8,8c_Co_1_Ch,132,O:C(:O)C1:C(F):C(F):C(C2:N:C(:N:C(:N:2)C2:C(F):C(F):C(C3:N:C(:N:C(:N:3)C3:C(F):C(F):C(C4:N:C(:N:C(:N:4)C4:C(F):C(F):C(C(:O):O):C(F):C:4F)C4:C(F):C(F):C(C(:O):O):C(F):C:4F):C(F):C:3F)C3:C(F):C(F):C(C4:N:C(:N:C(:N:4)C4:C(F):C(F):C(C(:O):O):C(F):C:4F)C4:C(F):C(F):C(C(:O):O):C(F):C:4F):C(F):C:3F):C(F):C:2F)C2:C(F):C(F):C(C(:O):O):C(F):C:2F):C(F):C:1F,1
SR_eps_v1-3c_B_Ch_v2-8c_Mn_1_Ch_v3-4c_porphyrin_Ch_2B_4Br_Ch_1x1x1,0.0454,0.86406,0.560793,2345.43,1315.3,35.08656,13.46837,95996.74423,,,,1065,,60,60,48,Br96C196Cl1H22Mn4N36,0.011396011,8,8c_Mn_1_Ch,350,BrC1:C(Br):C(:C(Br):C(Br):C:1C1:C:C(:C:C(:C:1)C1:C(Br):C(Br):C(:C(Br):C:1Br)C1:C(Br):C(Br):C(:C(Br):C:1Br)C1:C2:C:C:C(:N:2):C(C2:C(Br):C(Br):C(:C(Br):C:2Br)C2:C(Br):C(Br):C(C3:C:C(:C:C(:C:3)C3:C(Br):C(Br):C(:C(Br):C:3Br)C3:C(Br):C(Br):C(C4:N:N:N:N:4):C(Br):C:3Br)C3:C(Br):C(Br):C(:C(Br):C:3Br)C3:C(Br):C(Br):C(C4:N:N:N:N:4):C(Br):C:3Br):C(Br):C:2Br):C2:C:C:C(:[NH]:2):C(C2:C(Br):C(Br):C(:C(Br):C:2Br)C2:C(Br):C(Br):C(C3:C:C(:C:C(:C:3)C3:C(Br):C(Br):C(:C(Br):C:3Br)C3:C(Br):C(Br):C(C4:N:N:N:N:4):C(Br):C:3Br)C3:C(Br):C(Br):C(:C(Br):C:3Br)C3:C(Br):C(Br):C(C4:N:N:N:N:4):C(Br):C:3Br):C(Br):C:2Br):C2:C:C:C(:N:2):C(C2:C(Br):C(Br):C(:C(Br):C:2Br)C2:C(Br):C(Br):C(C3:C:C(:C:C(:C:3)C3:C(Br):C(Br):C(:C(Br):C:3Br)C3:C(Br):C(Br):C(C4:N:N:N:N:4):C(Br):C:3Br)C3:C(Br):C(Br):C(:C(Br):C:3Br)C3:C(Br):C(Br):C(C4:N:N:N:N:4):C(Br):C:3Br):C(Br):C:2Br):C2:C:C:C:1:[NH]:2)C1:C(Br):C(Br):C(:C(Br):C:1Br)C1:C(Br):C(Br):C(C2:N:N:N:N:2):C(Br):C:1Br)C1:C(Br):C(Br):C(C2:N:N:N:N:2):C(Br):C:1Br,1
SR_epa_v1-6c_Mg_1_Ch_v2-6c_Mg_1_Ch_v3-4c_pyrene_Ch_1B_2SH_Ch_ntn_edge_2x2x1,0.14809,0.7181,0.6489,3031.1,1966.88,15.24412,6.87061,177836.2387,,,,4824,,1440,1440,576,C28H15Mg4O16S4,0.063492063,6,6c_Mg_1_Ch,"6,82",O:C(:O)C(:O):O___O:C(:O)C1:C:C(S):C(:C:C:1S)C1:C:C(C2:C:C(S):C(:C:C:2S)C(:O):O):C2:C:C:C3:C(:C:C(C4:C:C(S):C(:C:C:4S)C(:O):O):C4:C:C:C:1:C:2:C:4:3)C1:C:C(S):C(:C:C:1S)C(:O):O,1
SR_ecv_v1-8c_Co_1_Ch_1B_2CN_Ch_2x2x1,0.22577,0.5574,1.17716,676.592,796.459,6.66228,5.00694,100081.7768,,,,4928,,1280,1280,1024,C40Co4H8N8O17,0.054794521,8,8c_Co_1_Ch,18,N#CC1:C:C(C(:O):O):C(C#N):C:C:1C(:O):O,1
SR_epy_v1-3c_B_Ch_v2-6c_Mg_1_Ch_v3-4c_ethene_Ch_1B_2CN_Ch_ntn_edge_1x1x1,0.17833,0.82684,0.366801,4199.45,1540.36,20.03312,13.98364,196729.4126,,,,4032,,480,480,192,C25H8Mg1N4O4,0.024390244,6,6c_Mg_1_Ch,,None,1
SR_dnj_v1-8c_Co_1_Ch_v2-6c_B_Ch_v3-3c_triazine_Ch_2B_2NH2_Ch_1x1x1,0.08004,0.8917,0.235574,4406.85,1038.14,37.84597,27.39553,148514.2008,,,,2358,,120,120,96,C168Co4H144N60O17,0.010282776,8,8c_Co_1_Ch,,None,1
SR_epo_v1-3c_pyrrole_Ch_v2-6c_Zn_1_Ch_v3-4c_porphyrin_Ch_ntn_edge_1B_2Br_Ch_1x1x1,0.05745,0.8021,0.673965,2356.86,1588.44,20.64355,11.05215,46657.31505,,,,1036,,128,128,96,Br24C138H51N12O26Zn8,0.03187251,6,6c_Zn_1_Ch,166,O:C(:O)C1:C:C(Br):C(:C:C:1Br)C1:C:C:C(C2:C:C(Br):C(:C:C:2Br)C(:O):O):N:1C1:C2:C:C:C(:N:2):C(:C2:C:C:C(:[NH]:2):C(:C2:C:C:C(:N:2):C(:C2:C:C:C:1:[NH]:2)N1:C(:C:C:C:1C1:C:C(Br):C(:C:C:1Br)C(:O):O)C1:C:C(Br):C(:C:C:1Br)C(:O):O)N1:C(:C:C:C:1C1:C:C(Br):C(:C:C:1Br)C(:O):O)C1:C:C(Br):C(:C:C:1Br)C(:O):O)N1:C(:C:C:C:1C1:C:C(Br):C(:C:C:1Br)C(:O):O)C1:C:C(Br):C(:C:C:1Br)C(:O):O,1
SR_dna_v1-8c_Co_1_Ch_v2-6c_B_Ch_v3-3c_B_Ch_1B_2CN_Ch_1x1x1,0.11791,0.79806,0.457592,3008.81,1376.81,30.60001,11.11648,107385.2754,,,,2556,,240,240,192,C132Co4H36N24O17,0.019138756,8,8c_Co_1_Ch,312,N#CC1:C:C(C2:C:C(:C:C(:C:2)C2:C:C(C#N):C(:C:C:2C#N)C2:C(C3:C:C(C#N):C(:C:C:3C#N)C3:C:C(:C:C(:C:3)C3:C:C(C#N):C(:C:C:3C#N)C(:O):O)C3:C:C(C#N):C(:C:C:3C#N)C(:O):O):C(C3:C:C(C#N):C(:C:C:3C#N)C3:C:C(:C:C(:C:3)C3:C:C(C#N):C(:C:C:3C#N)C(:O):O)C3:C:C(C#N):C(:C:C:3C#N)C(:O):O):C(C3:C:C(C#N):C(:C:C:3C#N)C3:C:C(:C:C(:C:3)C3:C:C(C#N):C(:C:C:3C#N)C(:O):O)C3:C:C(C#N):C(:C:C:3C#N)C(:O):O):C(C3:C:C(C#N):C(:C:C:3C#N)C3:C:C(:C:C(:C:3)C3:C:C(C#N):C(:C:C:3C#N)C(:O):O)C3:C:C(C#N):C(:C:C:3C#N)C(:O):O):C:2C2:C:C(C#N):C(:C:C:2C#N)C2:C:C(:C:C(:C:2)C2:C:C(C#N):C(:C:C:2C#N)C(:O):O)C2:C:C(C#N):C(:C:C:2C#N)C(:O):O)C2:C:C(C#N):C(:C:C:2C#N)C(:O):O):C(C#N):C:C:1C(:O):O,1
SR_epc_v1-6c_Al_1_Ch_v2-4c_1anC_Ch_v3-4c_B_Ch_1B_2CH3_Ch_1x1x1,0.24552,0.71626,0.580088,2753.82,1597.46,16.27969,9.58614,24413.60047,,,,1012,,120,120,96,Al6C121H100O26,0.024291498,6,6c_Al_1_Ch,"77,84",CC1:C:C(:C(C):C:C:1C(:O):O)C(C1:C:C(C):C(:C:C:1C)C(:O):O)(C1:C:C(C):C(:C:C:1C)C(:O):O)C1:C:C(C):C(:C:C:1C)C(:O):O___CC1:C:C(:C(C):C:C:1C(:O):O)C1:C:C(C2:C:C(C):C(:C:C:2C)C(:O):O):C(:C:C:1C1:C:C(C):C(:C:C:1C)C(:O):O)C1:C:C(C):C(:C:C:1C)C(:O):O,1
SR_dnx_v1-4c_V_1_Ch_v2-4c_1anC_Ch_v3-3c_B_Ch_1B_2CN_Ch_1x1x1,0.15584,0.6967,0.670092,2683.17,1797.97,12.44875,6.92672,41976.52674,,,,1488,,108,96,96,C39H10N8O4V1,0.016393443,4,4c_V_1_Ch,,None,1
SR_eps_v1-3c_B_Ch_v2-8c_Zr_1_Ch_v3-4c_porphyrin_Ch_1B_2furan_Ch_1x1x1,0.06529,0.90692,0.229705,5280.47,1212.95,34.94347,14.39981,79198.92215,,,,972,,144,144,48,C86H43N2O28Zr3,0.018867925,8,8c_Zr_1_Ch,286,O:C(:O)C1:C:C2:C:C3:O:C(:C:C:3:C:C:2:O:1)C1:C:C(:C:C(:C:1)C1:C:C2:C:C3:O:C(:C:C:3:C:C:2:O:1)C1:C2:C:C:C(:N:2):C(C2:C:C3:C:C4:O:C(:C:C:4:C:C:3:O:2)C2:C:C(:C:C(:C:2)C2:C:C3:C:C4:O:C(:C:C:4:C:C:3:O:2)C(:O):O)C2:C:C3:C:C4:O:C(:C:C:4:C:C:3:O:2)C(:O):O):C2:C:C:C(:[NH]:2):C(C2:C:C3:C:C4:O:C(:C:C:4:C:C:3:O:2)C2:C:C(:C:C(:C:2)C2:C:C3:C:C4:O:C(:C:C:4:C:C:3:O:2)C(:O):O)C2:C:C3:C:C4:O:C(:C:C:4:C:C:3:O:2)C(:O):O):C2:C:C:C(:N:2):C(C2:C:C3:C:C4:O:C(:C:C:4:C:C:3:O:2)C2:C:C(:C:C(:C:2)C2:C:C3:C:C4:O:C(:C:C:4:C:C:3:O:2)C(:O):O)C2:C:C3:C:C4:O:C(:C:C:4:C:C:3:O:2)C(:O):O):C2:C:C:C:1:[NH]:2)C1:C:C2:C:C3:O:C(:C:C:3:C:C:2:O:1)C(:O):O,1
SR_dnj_v1-8c_Co_1_Ch_v2-6c_B_Ch_v3-3c_B_Ch_1B_2TrU_Ch_1x1x1,0.08428,0.93908,0.132113,6705.16,885.839,45.16189,33.26635,184157.6419,,,,1422,,120,120,96,C156Co4H60O17,0.017167382,8,8c_Co_1_Ch,348,O:C(:O)C#CC1:C:C:C(C#CC2:C:C(C#CC3:C:C:C(C#CC(:O):O):C:C:3):C:C(C#CC3:C:C:C(C#CC4:C(C#CC5:C:C:C(C#CC6:C:C(C#CC7:C:C:C(C#CC(:O):O):C:C:7):C:C(C#CC7:C:C:C(C#CC(:O):O):C:C:7):C:6):C:C:5):C(C#CC5:C:C:C(C#CC6:C:C(C#CC7:C:C:C(C#CC(:O):O):C:C:7):C:C(C#CC7:C:C:C(C#CC(:O):O):C:C:7):C:6):C:C:5):C(C#CC5:C:C:C(C#CC6:C:C(C#CC7:C:C:C(C#CC(:O):O):C:C:7):C:C(C#CC7:C:C:C(C#CC(:O):O):C:C:7):C:6):C:C:5):C(C#CC5:C:C:C(C#CC6:C:C(C#CC7:C:C:C(C#CC(:O):O):C:C:7):C:C(C#CC7:C:C:C(C#CC(:O):O):C:C:7):C:6):C:C:5):C:4C#CC4:C:C:C(C#CC5:C:C(C#CC6:C:C:C(C#CC(:O):O):C:C:6):C:C(C#CC6:C:C:C(C#CC(:O):O):C:C:6):C:5):C:C:4):C:C:3):C:2):C:C:1,1
SR_eps_v1-3c_pyrrole_Ch_v2-8c_Mn_1_Ch_v3-4c_porphyrin_Ch_2B_2F_Ch_1x1x1,0.0971,0.9111,0.214882,5400.56,1160.48,39.07326,14.75079,93938.25997,,,,1041,,60,60,48,C188Cl1F48H66Mn4N40,0.011661808,8,8c_Mn_1_Ch,342,FC1:C:C(:C(F):C:C:1C1:N:N:N:N:1)C1:C:C(F):C(:C:C:1F)C1:C:C:C(C2:C:C(F):C(:C:C:2F)C2:C:C(F):C(:C:C:2F)C2:N:N:N:N:2):N:1C1:C:C(F):C(:C:C:1F)C1:C:C(F):C(:C:C:1F)C1:C2:C:C:C(:N:2):C(C2:C:C(F):C(:C:C:2F)C2:C:C(F):C(:C:C:2F)N2:C(:C:C:C:2C2:C:C(F):C(:C:C:2F)C2:C:C(F):C(:C:C:2F)C2:N:N:N:N:2)C2:C:C(F):C(:C:C:2F)C2:C:C(F):C(:C:C:2F)C2:N:N:N:N:2):C2:C:C:C(:[NH]:2):C(C2:C:C(F):C(:C:C:2F)C2:C:C(F):C(:C:C:2F)N2:C(:C:C:C:2C2:C:C(F):C(:C:C:2F)C2:C:C(F):C(:C:C:2F)C2:N:N:N:N:2)C2:C:C(F):C(:C:C:2F)C2:C:C(F):C(:C:C:2F)C2:N:N:N:N:2):C2:C:C:C(:N:2):C(C2:C:C(F):C(:C:C:2F)C2:C:C(F):C(:C:C:2F)N2:C(:C:C:C:2C2:C:C(F):C(:C:C:2F)C2:C:C(F):C(:C:C:2F)C2:N:N:N:N:2)C2:C:C(F):C(:C:C:2F)C2:C:C(F):C(:C:C:2F)C2:N:N:N:N:2):C2:C:C:C:1:[NH]:2,1
SR_epa_v1-6c_Mg_1_Ch_v2-6c_Mg_1_Ch_v3-4c_B_Ch_1B_2CF3_Ch_ntn_edge_2x2x1,0.16023,0.67226,0.819464,1897.05,1554.57,14.2064,5.86954,154063.0675,,,,4896,,1440,1440,576,C27F12H9Mg4O16,0.0625,6,6c_Mg_1_Ch,"6,84",O:C(:O)C(:O):O___O:C(:O)C1:C:C(:C(:C:C:1C(F)(F)F)C1:C:C(:C(:C:C:1C1:C:C(:C(:C:C:1C(F)(F)F)C(:O):O)C(F)(F)F)C1:C:C(:C(:C:C:1C(F)(F)F)C(:O):O)C(F)(F)F)C1:C:C(:C(:C:C:1C(F)(F)F)C(:O):O)C(F)(F)F)C(F)(F)F,1