name,k,VF,density,ASA_grav,ASA_vol,LPD,PLD,volume,,,,N_atoms,,N_metal_containing_bonds,N_metal_nonmetal_bonds,N_metal_linker_bonds,formula,metal_nonmetal_ratio,metal_node_connectivity,metal_node_name,N_atoms_per_linker,linker_SMILES,N_ccs
SR_fsn_v1-6c_Zn_1_Ch_v2-4c_bicyclooctane_Ch_2B_2CF3_Ch_1x1x1,0.05877,0.8099,0.520836,3592.59,1871.15,13.82379,10.22539,47328.17836,,,,1084,,64,64,48,C134F84H36O13Zn4,0.014981273,6,6c_Zn_1_Ch,266,O:C(:O)C1:C:C(:C(:C:C:1C(F)(F)F)C1:C:C(:C(:C:C:1C(F)(F)F)C1=CC2(C=C(C3:C:C(:C(:C:C:3C(F)(F)F)C3:C:C(:C(:C:C:3C(F)(F)F)C3=CC4(C=C(C5:C:C(:C(:C:C:5C(F)(F)F)C5:C:C(:C(:C:C:5C(F)(F)F)C(:O):O)C(F)(F)F)C(F)(F)F)C3C(=C4)C3:C:C(:C(:C:C:3C(F)(F)F)C3:C:C(:C(:C:C:3C(F)(F)F)C(:O):O)C(F)(F)F)C(F)(F)F)C3:C:C(:C(:C:C:3C(F)(F)F)C3:C:C(:C(:C:C:3C(F)(F)F)C(:O):O)C(F)(F)F)C(F)(F)F)C(F)(F)F)C(F)(F)F)C1C(=C2)C1:C:C(:C(:C:C:1C(F)(F)F)C1:C:C(:C(:C:C:1C(F)(F)F)C(:O):O)C(F)(F)F)C(F)(F)F)C1:C:C(:C(:C:C:1C(F)(F)F)C1:C:C(:C(:C:C:1C(F)(F)F)C(:O):O)C(F)(F)F)C(F)(F)F)C(F)(F)F)C(F)(F)F,1
SR_ibe_v1-6c_Mg_1_Ch_v2-3c_triazine_Ch_2B_4H_Ch_ntn_edge_1x1x1,0.38938,0.80426,0.45065,4429.85,1996.31,11.85722,9.2161,67354.12464,,,,1536,,480,480,192,C13H6Mg2N3O8,0.066666667,6,6c_Mg_1_Ch,44,O:C(:O)C1:N:C(:N:C(:N:1)C1:C:C:C(:C:C:1)C1:C:C:C(:C:C:1)C1:N:C(:N:C(:N:1)C(:O):O)C(:O):O)C(:O):O,1
SR_etp_v1-3c_triazine_Ch_v2-3c_Cu_imadazoline_Ch_2B_4H_Ch_1x1x1,0.04378,0.9759,0.06074,7070.58,429.467,57.60094,47.45089,943829.5551,,,,3168,,288,288,288,C34Cu3H22N7,0.047619048,3,3c_Cu_imadazoline_Ch,"34,87",C1:C:C(:C:C:C:1C1:C:C:C(:C:C:1)C1:C:N:N:C:1)C1:C:N:N:C:1___C1:C:C(:C:C:C:1C1:C:C:C(:C:C:1)C1:N:C(:N:C(:N:1)C1:C:C:C(:C:C:1)C1:C:C:C(:C:C:1)C1:C:N:N:C:1)C1:C:C:C(:C:C:1)C1:C:C:C(:C:C:1)C1:C:N:N:C:1)C1:C:N:N:C:1,1
SR_fsy_v1-4c_porphyrin_Ch_v2-4c_B_Ch_v3-6c_Mg_1_Ch_1B_2TrU_Ch_ntn_edge_1x2x1,0.47176,0.83174,0.36036,5498.42,1981.41,15.54565,9.48466,51749.69796,,,,1032,,240,240,96,C68H29Mg6N2O24,0.048780488,6,6c_Mg_1_Ch,"76,46",O:C(:O)C#CC1:C:C:C(C#CC2:C:C(C#CC3:C:C:C(C#CC(:O):O):C:C:3):C(C#CC3:C:C:C(C#CC(:O):O):C:C:3):C:C:2C#CC2:C:C:C(C#CC(:O):O):C:C:2):C:C:1___O:C(:O)C1:C2:C:C:C(:N:2):C(C(:O):O):C2:C:C:C(:[NH]:2):C(C(:O):O):C2:C:C:C(:N:2):C(C(:O):O):C2:C:C:C:1:[NH]:2,1
SR_hey_v1-4c_Cu_1_Ch_v2-3c_Cu_imadazoline_Ch_v3-3c_Cu_imadazoline_Ch_1B_4F_Ch_ntn_edge_1x1x1,0.15075,0.8965,0.334835,3638.85,1218.41,38.23117,11.35786,114991.3934,,,,1416,,300,288,288,C26Cu5F8H8N8O4,0.092592593,"3,4","3c_Cu_imadazoline_Ch,4c_Cu_1_Ch","14,20",C1:N:N:C:C:1C1:C:N:N:C:1___O:C(:O)C1:C(F):C(F):C(C2:C:N:N:C:2):C(F):C:1F,1
SR_gwe_v1-3c_Cu_imadazoline_Ch_v2-4c_porphyrin_Ch_v3-3c_Cu_imadazoline_Ch_v4-3c_Cu_imadazoline_Ch_v5-4c_Cu_1_Ch_1TrU_Ch_1DoU_Ch_2TrU_Ch_1x1x1,0.10092,0.9507,0.14187,6008.42,852.415,40.77009,28.75704,376944.961,,,,1980,,342,336,336,C80Cu13H40N28O4,0.085526316,"3,4","3c_Cu_imadazoline_Ch,4c_Cu_1_Ch","18,74,12",C(=CC1:C:N:N:C:1)C1:C:N:N:C:1___C(C#CC1:C2:C:C:C(:N:2):C(C#CC2:C:N:N:C:2):C2:C:C:C(:[NH]:2):C(C#CC2:C:N:N:C:2):C2:C:C:C(:N:2):C(C#CC#CC2:C:N:N:C:2):C2:C:C:C:1:[NH]:2)#CC1:C:N:N:C:1___O:C(:O)C#CC1:C:N:N:C:1,1
SR_flue_v1-6c_Fe_1_Ch_1B_2Br_Ch_1x1x1,0.28126,0.76042,0.830273,1992.92,1654.67,22.03613,6.44476,73552.83282,,,,1664,,480,480,384,Br6C24Fe3H6O13,0.06122449,6,6c_Fe_1_Ch,16,O:C(:O)C1:C:C(Br):C(:C:C:1Br)C(:O):O,1
SR_fsb_v1-4c_bicyclooctane_Ch_v2-6c_Fe_1_Ch_1B_2CN_Ch_ntn_edge_2x2x2,0.2526,0.5745,0.968511,0,0,7.34529,3.20402,47897.92411,,,,2080,,240,240,192,C78Fe3H24N12O13,0.023622047,6,6c_Fe_1_Ch,252,N#CC1:C:C(C(:O):O):C(C#N):C:C:1C1=CC2(C=C3C4=CC5(C=C(C6=CC7(C=C(C8=CC9(C=C(C%10=CC%11(C=C(C%12=CC%13(C=C(C(=C2)C31)C%12C(=C%13)C1:C:C(C#N):C(:C:C:1C#N)C(:O):O)C1:C:C(C#N):C(:C:C:1C#N)C(:O):O)C%10C(=C%11)C1:C:C(C#N):C(:C:C:1C#N)C(:O):O)C1:C:C(C#N):C(:C:C:1C#N)C(:O):O)C8C(=C9)C1:C:C(C#N):C(:C:C:1C#N)C(:O):O)C1:C:C(C#N):C(:C:C:1C#N)C(:O):O)C6C(=C7)C1:C:C(C#N):C(:C:C:1C#N)C(:O):O)C1:C:C(C#N):C(:C:C:1C#N)C(:O):O)C4C(=C5)C1:C:C(C#N):C(:C:C:1C#N)C(:O):O)C1:C:C(C#N):C(:C:C:1C#N)C(:O):O)C1:C:C(C#N):C(:C:C:1C#N)C(:O):O,1
SR_isi_v1-4c_1anC_Ch_v2-4c_Cd_1_Ch_v3-4c_bicyclooctane_Ch_v4-4c_1anC_Ch_v5-4c_bicyclooctane_Ch_v6-4c_bicyclooctane_Ch_v7-4c_bicyclooctane_Ch_10_edges_2x3x1,0.47279,0.4761,1.32564,0,0,6.38351,1.65146,44961.20672,,,,2976,,384,384,384,C37Cd1H16O8,0.016393443,4,4c_Cd_1_Ch,,None,1
SR_hbr_v1-8c_Co_1_Ch_v2-8c_Co_2_Ch_2TrU_Ch_1x1x2,0.14732,0.82532,0.479211,3770.03,1806.64,26.70283,16.95779,62465.19329,,,,954,,360,360,288,C80Cl1Co12H8N24O34,0.081632653,8,"8c_Co_1_Ch,8c_Co_2_Ch","10,13",O:C(:O)C#CC#CC(:O):O___O:C(:O)C#CC#CC1C:N:N:N:1,1
SR_fsd_v1-4c_porphyrin_Ch_v2-6c_CdZn_1_Ch_1DoU_Ch_2TrU_Ch_1TrU_Ch_1x1x1,0.22279,0.82442,0.477641,3450.54,1648.12,18.5157,16.99373,10434.44924,,,,230,,32,32,24,C62Cd3H28N8O13Zn1,0.036036036,6,6c_CdZn_1_Ch,"10,100",O:C(:O)C#CC#CC(:O):O___O:C(:O)C=CC1:C2:C:C:C(:N:2):C2C#CC3:C4:C:C:C(:N:4):C(C=CC(:O):O):C4:C:C:C(:[NH]:4):C(C#CC(:C4:C:C:C(:N:4):C(C=CC(:O):O):C4:C:C:C:2:[NH]:4):C2:C:C:C:1:[NH]:2):C1:C:C:C(:N:1):C(C=CC(:O):O):C1:C:C:C:3:[NH]:1,1
SR_gwg_v1-4c_Ni_1_Ch_v2-3c_pyrrole_Ch_1B_4Br_Ch_2x2x2,0.39284,0.6295,1.54773,1033.61,1599.74,6.52069,4.55918,44146.71576,,,,1248,,144,128,128,Br10C21H2N1Ni1O4,0.026315789,4,4c_Ni_1_Ch,76,O:C(:O)C1:C(Br):C(Br):C(:C(Br):C:1Br)C1:C:C:C(C2:C(Br):C(Br):C(:C(Br):C:2Br)C2:C:C:C(C3:C(Br):C(Br):C(C(:O):O):C(Br):C:3Br):N:2C2:C(Br):C(Br):C(C(:O):O):C(Br):C:2Br):N:1C1:C(Br):C(Br):C(C(:O):O):C(Br):C:1Br,1
SR_lcx_v1-8c_Co_1_Ch_1B_2NO2_Ch_2x2x2,0.24707,0.48842,1.44382,0,0,8.98487,3.33349,70051.1489,,,,4080,,960,960,768,C32Co4H8N8O33,0.049382716,8,8c_Co_1_Ch,20,O:C(:O)C1:C:C(:C(:C:C:1N(:O):O)C(:O):O)N(:O):O,1
SR_iab_v1-3c_B_Ch_v2-4c_V_1_Ch_v3-4c_porphyrin_Ch_ntn_edge_1B_2F_Ch_2x2x1,0.55842,0.72974,0.614713,3503.82,2153.84,10.64302,6.22573,70850.74763,,,,2528,,144,128,128,C46F4H20N4O4V1,0.012820513,4,4c_V_1_Ch,,None,1
SR_hbl_v1-4c_Cd_1_Ch_v2-3c_pyrrole_Ch_ntn_edge_1B_2CH3_Ch_1x1x2,0.0742,0.83722,0.375485,4196.97,1575.9,23.53086,18.7093,47102.89581,,,,1088,,128,128,128,C32Cd1H26N1O8,0.014925373,4,4c_Cd_1_Ch,"90,22",CC1:C:C(:C(C):C:C:1C(:O):O)C1:C:C:C(C2:C:C(C):C(:C:C:2C)C(:O):O):N:1N1:C(:C:C:C:1C1:C:C(C):C(:C:C:1C)C(:O):O)C1:C:C(C):C(:C:C:1C)C(:O):O___CC1:C:C(C(:O):O):C(C):C:C:1C(:O):O,1
SR_lcy_v1-6c_Al_1_Ch_1B_2F_Ch_2x2x2,0.39193,0.75286,0.641981,2994.26,1922.26,11.15498,8.78637,57710.62429,,,,1664,,480,480,384,Al3C24F6H6O13,0.06122449,6,6c_Al_1_Ch,16,O:C(:O)C1:C:C(F):C(:C:C:1F)C(:O):O,1
SR_fsn_v1-6c_Zn_1_Ch_v2-4c_1anC_Ch_ntn_edge_1B_2NO2_Ch_2x2x2,0.311,0.35488,2.29901,0,0,3.47669,1.85232,16913.40098,,,,1248,,512,512,384,C14H2N2O17Zn4,0.114285714,6,6c_Zn_1_Ch,34,O:C(:O)C(C(:O):O)(C(:O):O)C1:C:C(:C(:C:C:1N(:O):O)C(C(:O):O)(C(:O):O)C(:O):O)N(:O):O,1
SR_gal_v1-6c_B_Ch_v2-8c_Co_1_Ch_1TrU_Ch_1B_4H_Ch_1x1x1,0.26492,0.62152,1.05546,1532.04,1617.02,8.21262,4.97108,33991.35415,,,,1464,,480,480,384,C32Co4H8O17,0.070175439,8,8c_Co_1_Ch,"36,16",O:C(:O)C#CC1:C(C#CC(:O):O):C(C#CC(:O):O):C(C#CC(:O):O):C(C#CC(:O):O):C:1C#CC(:O):O___O:C(:O)C1:C:C:C(:C:C:1)C(:O):O,1
SR_jjt_v1-6c_Al_1_Ch_v2-3c_B_Ch_v3-3c_B_Ch_1DoU_Ch_1TrU_Ch_2x2x2,0.4626,0.8128,0.405047,5529.74,2239.8,12.3354,7.42379,66844.36605,,,,1312,,240,240,192,Al3C48H18O13,0.037974684,6,6c_Al_1_Ch,78,O:C(:O)C#CC1:C:C(C#CC(:O):O):C:C(C=CC2:C:C(C=CC3:C:C(C#CC(:O):O):C:C(C#CC(:O):O):C:3):C:C(C=CC3:C:C(C#CC(:O):O):C:C(C#CC(:O):O):C:3):C:2):C:1,1
SR_flu_v1-4c_1anC_Ch_v2-8c_Mn_1_Ch_2B_4F_Ch_1x1x1,0.08542,0.82928,0.47806,3683.43,1760.9,20.88468,8.90423,44356.43329,,,,828,,80,80,64,C106Cl1F64Mn4N32,0.019704433,8,8c_Mn_1_Ch,101,FC1:C(F):C(:C(F):C(F):C:1C1:N:N:N:N:1)C1:C(F):C(F):C(:C(F):C:1F)C(C1:C(F):C(F):C(:C(F):C:1F)C1:C(F):C(F):C(C2:N:N:N:N:2):C(F):C:1F)(C1:C(F):C(F):C(:C(F):C:1F)C1:C(F):C(F):C(C2:N:N:N:N:2):C(F):C:1F)C1:C(F):C(F):C(:C(F):C:1F)C1:C(F):C(F):C(C2:N:N:N:N:2):C(F):C:1F,1
SR_kew_v1-6c_Cr_1_Ch_v2-6c_B_Ch_v3-3c_B_Ch_1TrU_Ch_2x2x2,1.0021,0.76238,0.578532,4135.54,2392.54,9.81087,6.02831,48895.99977,,,,1120,,240,240,192,C45Cr3H9O13,0.044776119,6,6c_Cr_1_Ch,132,O:C(:O)C#CC1:C:C(C#CC(:O):O):C:C(C#CC2:C(C#CC3:C:C(C#CC(:O):O):C:C(C#CC(:O):O):C:3):C(C#CC3:C:C(C#CC(:O):O):C:C(C#CC(:O):O):C:3):C(C#CC3:C:C(C#CC(:O):O):C:C(C#CC(:O):O):C:3):C(C#CC3:C:C(C#CC(:O):O):C:C(C#CC(:O):O):C:3):C:2C#CC2:C:C(C#CC(:O):O):C:C(C#CC(:O):O):C:2):C:1,1
SR_fsy_v1-4c_Ni_1_Ch_v2-4c_Ni_1_Ch_v3-6c_Ni_1_Ch_1B_2thiophene_Ch_1x1x1,0.11852,0.88868,0.308009,4568.67,1407.19,21.86772,16.27576,45361.67376,,,,572,,126,120,96,C72H26Ni7O26S12,0.051470588,"4,6","4c_Ni_1_Ch,6c_Ni_1_Ch",22,O:C(:O)C1:C:C2:C:C3:S:C(:C:C:3:C:C:2:S:1)C(:O):O,1