name,k,VF,density,ASA_grav,ASA_vol,LPD,PLD,volume,,,,N_atoms,,N_metal_containing_bonds,N_metal_nonmetal_bonds,N_metal_linker_bonds,formula,metal_nonmetal_ratio,metal_node_connectivity,metal_node_name,N_atoms_per_linker,linker_SMILES,N_ccs
SR_cdm_v1-4c_Cu_1_Ch_v2-4c_Cu_1_Ch_ntn_edge_1B_2CN_Ch_2x2x1,2.72972,0.53818,1.47563,0,0,5.45364,2.73525,41837.13561,,,,2112,,864,768,768,C14Cu3H2N2O12,0.1,4,4c_Cu_1_Ch,"18,6",N#CC1:C:C(C(:O):O):C(C#N):C:C:1C(:O):O___O:C(:O)C(:O):O,1
SR_crs_v1-6c_CdZn_1_Ch_ntn_edge_1x1x1,0.13902,0.74894,1.26371,1374.12,1736.49,11.70158,8.78234,14352.75714,,,,368,,256,256,192,C6Cd3O13Zn1,0.210526316,6,6c_CdZn_1_Ch,6,O:C(:O)C(:O):O,1
SR_ceu_v1-4c_B_Ch_v2-6c_Ni_1_Ch_v3-4c_Ni_1_Ch_2B_2CH3_Ch_ntn_edge_2x2x1,0.3838,0.48258,1.18216,0,0,10.24793,2.44864,66554.33867,,,,4208,,504,480,384,C126H104Ni7O26,0.02734375,"4,6","4c_Ni_1_Ch,6c_Ni_1_Ch",84,CC1:C:C(:C(C):C:C:1C(:O):O)C1:C:C(C):C(:C:C:1C)C1:C:C(C(:O):O):C(:C:C:1C1:C:C(C):C(:C:C:1C)C1:C:C(C):C(:C:C:1C)C(:O):O)C(:O):O,1
SR_buh_v1-4c_bicyclooctane_Ch_v2-12c_Eu_1_Ch_v3-12c_Eu_1_Ch_2B_fused_Ch_1x1x1,0.1402,0.74752,0.668385,3077.5,2056.95,13.20533,6.75815,67306.60781,,,,2256,,384,384,192,C78Eu3H44O16,0.02173913,12,12c_Eu_1_Ch,88,O:C(:O)C1:C:C:C2:C:C(:C:C:C:2:C:1)C1=CC2(C=C(C3:C:C:C4:C:C(:C:C:C:4:C:3)C(:O):O)C1C(=C2)C1:C:C:C2:C:C(:C:C:C:2:C:1)C(:O):O)C1:C:C:C2:C:C(:C:C:C:2:C:1)C(:O):O,1
SR_ced_v1-3c_triazine_Ch_v2-12c_Mn_1_Ch_2B_4CN_Ch_2x2x1,0.13274,0.7285,0.621074,3108.41,1930.55,14.33172,6.77258,84029.45543,,,,2012,,168,168,72,C330Mn8N138O27,0.016161616,12,12c_Mn_1_Ch,164,N#CC1:C(C#N):C(:C(C#N):C(C#N):C:1C(O):O)C1:C(C#N):C(C#N):C(C2:N:C(:N:C(:N:2)C2:C(C#N):C(C#N):C(:C(C#N):C:2C#N)C2:C(C#N):C(C#N):C(C3:N:C(:N:C(:N:3)C3:C(C#N):C(C#N):C(:C(C#N):C:3C#N)C3:C(C#N):C(C#N):C(C(:O):O):C(C#N):C:3C#N)C3:C(C#N):C(C#N):C(:C(C#N):C:3C#N)C3:C(C#N):C(C#N):C(C(O):O):C(C#N):C:3C#N):C(C#N):C:2C#N)C2:C(C#N):C(C#N):C(:C(C#N):C:2C#N)C2:C(C#N):C(C#N):C(C(:O):O):C(C#N):C:2C#N):C(C#N):C:1C#N,1
SR_ceh_v1-3c_triazine_Ch_v2-6c_Mg_1_Ch_v3-4c_bicyclooctane_Ch_1B_2NH2_Ch_1x1x4,0.34247,0.51874,1.01385,213.92,216.883,6.89486,4.61373,25894.334,,,,1488,,120,120,48,C27H21Mg1N9O4,0.016393443,6,6c_Mg_1_Ch,,None,1
SR_cdz_v1-4c_Cu_1_Ch_v2-4c_porphyrin_Ch_1TrU_Ch_ntn_edge_1B_4H_Ch_2x1x1,1.53387,0.68994,0.703321,2855,2007.98,9.41673,7.79456,22516.77227,,,,928,,72,64,64,C33Cu1H16N4O4,0.01754386,4,4c_Cu_1_Ch,"216,216,6",O:C(:O)C#CC1:C2:C:C:C(:N:2):C2C3:C:C:C(:C:C:3)C3:C4:C:C:C(:N:4):C4C5:C:C:C(:C:C:5)C5:C6:C:C:C(:N:6):C6C7:C:C:C(:C:C:7)C7:C8:C:C:C(:N:8):C(C#CC(:O):O):C8:C:C:C(:[NH]:8):C(C8:C:C:C(:C:C:8)C(:C8:C:C:C(:N:8):C(C#CC(:O):O):C8:C:C:C:6:[NH]:8):C6:C:C:C:5:[NH]:6):C5:C:C:C(:N:5):C(C5:C:C:C(:C:C:5)C(:C5:C:C:C(:N:5):C(C5:C:C:C(:C:C:5)C(:C5:C:C:C(:N:5):C(C#CC(:O):O):C5:C:C:C:3:[NH]:5):C3:C:C:C:4:[NH]:3):C3:C:C:C:1:[NH]:3):C1:C:C:C:2:[NH]:1):C1:C:C:C:7:[NH]:1___O:C(:O)C#CC1:C2:C:C:C(:N:2):C2C3:C:C:C(:C:C:3)C3:C4:C:C:C(:N:4):C4C5:C:C:C(:C:C:5)C5:C6:C:C:C(:N:6):C6C7:C:C:C(:C:C:7)C7:C8:C:C:C(:N:8):C(C8:C:C:C(:C:C:8)C(:C8:C:C:C(:N:8):C(C8:C:C:C(:C:C:8)C(:C8:C:C:C(:N:8):C(C#CC(:O):O):C8:C:C:C:3:[NH]:8):C3:C:C:C:4:[NH]:3):C3:C:C:C:1:[NH]:3):C1:C:C:C:2:[NH]:1):C1:C:C:C(:[NH]:1):C(C1:C:C:C(:C:C:1)C(:C1:C:C:C(:N:1):C(C#CC(:O):O):C1:C:C:C:6:[NH]:1):C1:C:C:C:5:[NH]:1):C1:C:C:C(:N:1):C(C#CC(:O):O):C1:C:C:C:7:[NH]:1___O:C(:O)C(:O):O,1
SR_cag_v1-4c_In_1_Ch_1B_2DoU_Ch_1x1x1,0.05972,0.93858,0.14719,6649.32,978.717,25.67706,19.4955,98793.99598,,,,784,,128,128,128,C24H16In1O8,0.020833333,4,4c_In_1_Ch,24,O:C(:O)C=CC1:C:C:C(C=CC(:O):O):C:C:1,1
SR_crsd_v1-8c_Mn_1_Ch_v2-4c_bicyclooctane_Ch_1B_2NH2_Ch_ntn_edge_1x1x1,0.2464,0.68416,0.78581,2730.2,2145.42,7.41929,4.64819,22386.27018,,,,904,,160,160,128,C40Cl1H28Mn4N40,0.036697248,8,8c_Mn_1_Ch,"10,88",N1:N:N:C(:N:1)C1:N:N:N:N:1___NC1:C:C(C2:N:N:N:N:2):C(N):C:C:1C1=CC2(C=C(C3:C:C(N):C(:C:C:3N)C3:N:N:N:N:3)C1C(=C2)C1:C:C(N):C(:C:C:1N)C1:N:N:N:N:1)C1:C:C(N):C(:C:C:1N)C1:N:N:N:N:1,1
SR_cdn_v1-4c_V_1_Ch_v2-4c_V_1_Ch_ntn_edge_1B_4CN_Ch_2x2x1,1.01936,0.66716,0.863376,1571.4,1356.71,10.33999,8.33343,133463.1562,,,,4480,,1152,1024,1024,C19N6O8V2,0.060606061,4,4c_V_1_Ch,"20,6",N#CC1:C(C#N):C(C(:O):O):C(C#N):C(C#N):C:1C(:O):O___O:C(:O)C(:O):O,1
SR_ces_v1-4c_B_Ch_v2-6c_bicyclooctane_Ch_v3-4c_Cu_1_Ch_ntn_edge_2B_fused_Ch_2x2x2,0.25958,0.73778,0.602038,3427.86,2063.7,10.47003,9.03392,78197.76072,,,,2416,,216,192,192,C92Cu3H44O12,0.02027027,4,4c_Cu_1_Ch,,None,1
SR_buh_v1-4c_1anC_Ch_v2-12c_Eu_1_Ch_v3-12c_Eu_1_Ch_1DoU_Ch_1TrU_Ch_1x1x1,0.21722,0.53866,1.68182,0,0,7.32803,3.39617,15139.64838,,,,792,,384,384,192,C39Eu6H22O32,0.064516129,12,12c_Eu_1_Ch,27,O:C(:O)C#CC(C=CC(:O):O)(C=CC(:O):O)C=CC(:O):O,1
SR_cut_v1-8c_Co_1_Ch_v2-3c_B_Ch_1B_2DoU_Ch_1x1x2,0.07325,0.93098,0.143625,6845.18,983.141,33.72478,28.79788,50602.49361,,,,490,,40,40,32,C132Co4H92O17,0.01659751,8,8c_Co_1_Ch,120,O:C(:O)C=CC1:C:C:C(C=CC2:C:C(C=CC3:C:C:C(C=CC(:O):O):C:C:3):C:C(C=CC3:C:C:C(C=CC4:C:C(C=CC5:C:C:C(C=CC(:O):O):C:C:5):C:C(C=CC5:C:C:C(C=CC(:O):O):C:C:5):C:4):C:C:3):C:2):C:C:1,1
SR_cboe_v1-6c_Cr_1_Ch_v2-6c_Cr_1_Ch_ntn_edge_1B_2CH3_Ch_1x1x1,0.15799,0.73492,0.667764,2527.15,1687.54,13.55976,8.32992,83128.07685,,,,2976,,720,720,576,C26Cr3H20O13,0.050847458,6,6c_Cr_1_Ch,"22,6",CC1:C:C(C(:O):O):C(C):C:C:1C(:O):O___O:C(:O)C(:O):O,1
SR_cev_v1-4c_ethene_Ch_v2-4c_Ni_1_Ch_v3-4c_Ni_1_Ch_1B_2CH3_Ch_ntn_edge_2x2x1,0.41353,0.43768,1.43057,0,0,5.47333,2.26491,34010.70691,,,,2304,,432,384,384,C11H8Ni1O4,0.043478261,4,4c_Ni_1_Ch,46,CC1:C:C(C(:O):O):C(C):C:C:1C(=C(C(:O):O)C(:O):O)C1:C:C(C):C(:C:C:1C)C(:O):O,1
SR_crs_v1-6c_CdZn_1_Ch_2B_2SH_Ch_1x1x1,0.04839,0.87644,0.357783,3808.57,1362.64,26.85219,18.19621,113175.3284,,,,1520,,256,256,192,C42Cd3H24O13S12Zn1,0.043956044,6,6c_CdZn_1_Ch,30,O:C(:O)C1:C:C(S):C(:C:C:1S)C1:C:C(S):C(:C:C:1S)C(:O):O,1
SR_ced_v1-3c_triazine_Ch_v2-12c_Mn_1_Ch_1B_2thiophene_Ch_2x2x1,0.13031,0.82936,0.430462,4431.45,1907.57,16.34417,8.7557,76817.37358,,,,1292,,168,168,72,C180H60Mn8N18O27S30,0.025396825,12,12c_Mn_1_Ch,104,OC(:O)C1:C:C2:C:C3:S:C(:C:C:3:C:C:2:S:1)C1:N:C(:N:C(:N:1)C1:C:C2:C:C3:S:C(:C:C:3:C:C:2:S:1)C1:N:C(:N:C(:N:1)C1:C:C2:C:C3:S:C(:C:C:3:C:C:2:S:1)C(:O):O)C1:C:C2:C:C3:S:C(:C:C:3:C:C:2:S:1)C(O):O)C1:C:C2:C:C3:S:C(:C:C:3:C:C:2:S:1)C(:O):O,1
SR_cdz_v1-4c_Ni_1_Ch_v2-4c_porphyrin_Ch_ntn_edge_2x2x2,1.44045,0.4994,1.22739,0,0,4.68987,3.05723,39251.99405,,,,2624,,288,256,256,C22H10N4Ni1O4,0.025,4,4c_Ni_1_Ch,"6,296,296",O:C(:O)C(:O):O___O:C(:O)C1:C2:C:C:C(:N:2):C2C3:C4:C:C:C(:N:4):C(C(:O):O):C4:C:C:C(:[NH]:4):C4C5:C6:C:C:C(:N:6):C6C7:C8:C:C:C(:N:8):C8C9:C%10:C:C:C(:N:%10):C(C(:O):O):C%10:C:C:C(:[NH]:%10):C%10C%11:C%12:C:C:C(:N:%12):C(C(:O):O):C%12:C:C:C(:[NH]:%12):C(C%12:C%13:C:C:C(:N:%13):C(C(:O):O):C%13:C:C:C(:[NH]:%13):C(C(:C%13:C:C:C(:N:%13):C(C(:O):O):C%13:C:C:C:8:[NH]:%13):C8:C:C:C:7:[NH]:8):C7:C:C:C(:N:7):C(C(:C7:C:C:C:4:N:7):C4:C:C:C:3:[NH]:4):C3:C:C:C:%12:[NH]:3):C3:C:C:C(:N:3):C(C(:C3:C:C:C(:N:3):C(C3:C4:C:C:C(:N:4):C(C(:C4:C:C:C:%10:N:4):C4:C:C:C:9:[NH]:4):C4:C:C:C(:[NH]:4):C(C(:C4:C:C:C(:N:4):C(C(:O):O):C4:C:C:C:5:[NH]:4):C4:C:C:C:6:[NH]:4):C4:C:C:C(:N:4):C(C(:O):O):C4:C:C:C:3:[NH]:4):C3:C:C:C:1:[NH]:3):C1:C:C:C:2:[NH]:1):C1:C:C:C:%11:[NH]:1___O:C(:O)C1:C2:C:C:C(:N:2):C2C3:C4:C:C:C(:N:4):C4C5:C6:C:C:C(:N:6):C6C7:C8:C:C:C(:N:8):C(C(:O):O):C8:C:C:C(:[NH]:8):C8C9:C%10:C:C:C(:N:%10):C(C(:O):O):C%10:C:C:C(:[NH]:%10):C%10C%11:C%12:C:C:C(:N:%12):C(C(:O):O):C%12:C:C:C(:[NH]:%12):C(C(:C%12:C:C:C(:N:%12):C(C(:O):O):C%12:C:C:C:6:[NH]:%12):C6:C:C:C:5:[NH]:6):C5:C:C:C(:N:5):C(C(:C5:C:C:C(:N:5):C(C5:C6:C:C:C(:N:6):C(C(:O):O):C6:C:C:C(:[NH]:6):C(C6:C%12:C:C:C(:N:%12):C(C(:O):O):C%12:C:C:C(:[NH]:%12):C(C(:C%12:C:C:C(:N:%12):C(C(:O):O):C%12:C:C:C:3:[NH]:%12):C3:C:C:C:4:[NH]:3):C3:C:C:C(:N:3):C(C(:C3:C:C:C:8:N:3):C3:C:C:C:7:[NH]:3):C3:C:C:C:6:[NH]:3):C3:C:C:C(:N:3):C(C(:C3:C:C:C:%10:N:3):C3:C:C:C:9:[NH]:3):C3:C:C:C:5:[NH]:3):C3:C:C:C:1:[NH]:3):C1:C:C:C:2:[NH]:1):C1:C:C:C:%11:[NH]:1,1
SR_cev_v1-4c_B_Ch_v2-4c_B_Ch_v3-4c_Cu_1_Ch_ntn_edge_2x2x1,1.58922,0.4022,1.70952,0,0,5.09476,1.60962,14360.82828,,,,912,,216,192,192,C11Cu1H3O4,0.055555556,4,4c_Cu_1_Ch,432,O:C(:O)C1:C:C2:C(:C:C:1C(:O):O)C1:C:C3C4:C:C(C(:O):O):C(:C:C:4C4:C:C5C6:C:C(C(:O):O):C(:C:C:6C6:C:C2:C2:C:C:6C6:C:C(C(:O):O):C(:C:C:6C6:C:C7C8:C:C(C(:O):O):C(:C:C:8C8:C:C(C9:C:C(C(:O):O):C(:C:C:92)C(:O):O):C2:C:C:8C8:C:C(C(:O):O):C(:C:C:8C8:C:C9C%10:C:C(C(:O):O):C(:C:C:%10C%10:C:C(C%11:C:C(C(:O):O):C(:C:C:%112)C(:O):O):C2:C:C:%10C%10:C:C(C(:O):O):C(:C:C:%10C%10:C:C%11C%12:C:C(C(:O):O):C(:C:C:%12C%12:C:C(C%13:C:C(C(:O):O):C(:C:C:%132)C(:O):O):C2:C:C:%12C%12:C:C(C(:O):O):C(:C:C:%12C%12:C:C(C%13:C:C(C(:O):O):C(:C:C:%13C%13:C:C(C%14:C:C(C(:O):O):C(:C:C:%142)C(:O):O):C2:C:C:%13C%13:C:C(C(:O):O):C(:C:C:%13C%13:C:C(C%14:C:C(C(:O):O):C(:C:C:%14C:3:C:C:1C1:C:C(C(:O):O):C(:C:C:12)C(:O):O)C(:O):O):C1:C:C:%13C2:C:C(C(:O):O):C(:C:C:2C:7:C:C:6C2:C:C(C(:O):O):C(:C:C:2C:%11:C:C:%10C2:C:C(C(:O):O):C(:C:C:21)C(:O):O)C(:O):O)C(:O):O)C(:O):O)C(:O):O):C1:C:C:%12C2:C:C(C(:O):O):C(:C:C:2C:5:C:C:4C2:C:C(C(:O):O):C(:C:C:2C:9:C:C:8C2:C:C(C(:O):O):C(:C:C:21)C(:O):O)C(:O):O)C(:O):O)C(:O):O)C(:O):O)C(:O):O)C(:O):O)C(:O):O)C(:O):O)C(:O):O)C(:O):O)C(:O):O,1
SR_crsd_v1-8c_Co_2_Ch_v2-4c_bicyclooctane_Ch_1B_2SH_Ch_ntn_edge_1x1x1,0.21054,0.64176,0.900387,1890.37,1702.06,7.61401,4.22573,21669.09901,,,,904,,160,160,128,C48Cl1Co4H28N24S8,0.036697248,8,8c_Co_2_Ch,"12,84",C1:N:N:N:C1C1C:N:N:N:1___SC1:C:C(C2C:N:N:N:2):C(S):C:C:1C1=CC2(C=C(C3:C:C(S):C(:C:C:3S)C3C:N:N:N:3)C1C(=C2)C1:C:C(S):C(:C:C:1S)C1C:N:N:N:1)C1:C:C(S):C(:C:C:1S)C1C:N:N:N:1,1
SR_ced_v1-3c_triazine_Ch_v2-12c_Mn_1_Ch_1B_4CN_Ch_2x2x2,0.18907,0.56042,1.03749,337.993,350.663,7.87627,3.7359,61134.22502,,,,2344,,336,336,144,C180Mn8N78O27,0.028070175,12,12c_Mn_1_Ch,"94,94",N#CC1:C(C#N):C(C2:N:C(:N:C(:N:2)C2:C(C#N):C(C#N):C(C3:N:C(:N:C(:N:3)C3:C(C#N):C(C#N):C(C(:O):O):C(C#N):C:3C#N)C3:C(C#N):C(C#N):C(C(:O):O):C(C#N):C:3C#N):C(C#N):C:2C#N)C2:C(C#N):C(C#N):C(C(:O):O):C(C#N):C:2C#N):C(C#N):C(C#N):C:1C(O):O___N#CC1:C(C#N):C(C2:N:C(:N:C(:N:2)C2:C(C#N):C(C#N):C(C3:N:C(:N:C(:N:3)C3:C(C#N):C(C#N):C(C(:O):O):C(C#N):C:3C#N)C3:C(C#N):C(C#N):C(C(O):O):C(C#N):C:3C#N):C(C#N):C:2C#N)C2:C(C#N):C(C#N):C(C(:O):O):C(C#N):C:2C#N):C(C#N):C(C#N):C:1C(O):O,1
SR_ced_v1-3c_B_Ch_v2-12c_Mn_1_Ch_4B_fused_8H_Ch_2x2x1,0.15593,0.8068,0.422963,4457.26,1885.25,16.7289,9.26462,81199.91311,,,,1844,,168,168,72,C288H138Mn8O27,0.017660044,12,12c_Mn_1_Ch,150,OC(:O)C1:C:C2:C:C:C3:C:C(:C:C4:C:C:C(:C:1):C:2:C:3:4)C1:C:C(:C:C(:C:1)C1:C:C2:C:C:C3:C:C(:C:C4:C:C:C(:C:1):C:2:C:3:4)C1:C:C(:C:C(:C:1)C1:C:C2:C:C:C3:C:C(:C:C4:C:C:C(:C:1):C:2:C:3:4)C(:O):O)C1:C:C2:C:C:C3:C:C(:C:C4:C:C:C(:C:1):C:2:C:3:4)C(O):O)C1:C:C2:C:C:C3:C:C(:C:C4:C:C:C(:C:1):C:2:C:3:4)C(:O):O,1
SR_cut_v1-8c_Mn_1_Ch_v2-3c_triazine_Ch_1TrU_Ch_1B_4H_Ch_2x2x2,0.19457,0.87706,0.314551,4936.19,1552.68,21.35698,17.3462,61495.22822,,,,840,,160,160,128,C48Cl1H8Mn4N44,0.03960396,8,8c_Mn_1_Ch,50,C(#CC1:N:C(C#CC2:N:N:N:N:2):N:C(:N:1)C1:C:C:C(:C:C:1)C1:N:C(C#CC2:N:N:N:N:2):N:C(C#CC2:N:N:N:N:2):N:1)C1:N:N:N:N:1,1
SR_ceh_v1-3c_B_Ch_v2-6c_Mg_1_Ch_v3-4c_bicyclooctane_Ch_4B_fused_8H_Ch_ntn_edge_1x1x2,0.22873,0.78364,0.437962,5212.73,2282.98,11.34195,8.80205,33815.94829,,,,852,,60,60,24,C44H22Mg1O4,0.014285714,6,6c_Mg_1_Ch,,None,1
SR_ddc_v1-3c_Cu_imadazoline_Ch_v2-4c_1anC_Ch_1B_2F_Ch_1x1x1,0.06552,0.88694,0.311189,4084.27,1270.98,31.05092,19.84282,38909.11072,,,,564,,48,48,48,C25Cu2F6H10N4,0.044444444,3,3c_Cu_imadazoline_Ch,180,FC1:C:C(:C(F):C:C:1C1:C:N:N:C:1)C1(C2:C:C(F):C(:C:C:2F)C2:C:N:N:C:2)C2:C:C(F):C(:C:C:2F)C(C2:C:C(F):C(:C:C:2F)C2:C:N:N:C:2)(C2:C:C(F):C(:C:C:2F)C2:C:N:N:C:2)C2:C:C(F):C(:C:C:2F)C(C2:C:C(F):C(:C:C:2F)C2:C:N:N:C:2)(C2:C:C(F):C(:C:C:2F)C2:C:N:N:C:2)C2:C:C(F):C(:C:C:2F)C(C2:C:C(F):C(:C:C:2F)C2:C:N:N:C:2)(C2:C:C(F):C(:C:C:2F)C2:C:N:N:C:2)C2:C:C(F):C1:C:C:2F,1
SR_cet_v1-3c_triazine_Ch_v2-6c_Ni_1_Ch_v3-6c_bicyclooctane_Ch_4B_fused_8H_Ch_1x1x1,0.12148,0.87816,0.258691,5513.96,1426.41,21.83689,18.38092,71964.26023,,,,1028,,36,36,24,C164H75N9Ni2O7,0.007843137,6,6c_Ni_1_Ch,,None,1
SR_buh_v1-4c_1anC_Ch_v2-12c_Eu_1_Ch_v3-12c_Eu_1_Ch_1DoU_Ch_1x1x1,0.24049,0.52696,1.70329,0,0,7.304,2.7102,14985.09618,,,,840,,384,384,192,C39Eu6H28O32,0.060606061,12,12c_Eu_1_Ch,29,O:C(:O)C=CC(C=CC(:O):O)(C=CC(:O):O)C=CC(:O):O,1
SR_cena_v1-4c_1anC_Ch_v2-4c_1anC_Ch_v3-4c_In_1_Ch_1B_4Br_Ch_1x1x1,0.05405,0.76954,1.01685,1495.47,1520.66,23.19961,12.26132,47181.21078,,,,732,,96,96,96,Br56C100In3O24,0.016666667,4,4c_In_1_Ch,"216,16",O:C(:O)C1:C(Br):C(Br):C(:C(Br):C:1Br)C12C3:C(Br):C(Br):C(:C(Br):C:3Br)C3(C4:C(Br):C(Br):C(C(:O):O):C(Br):C:4Br)C4:C(Br):C(Br):C(:C(Br):C:4Br)C(C4:C(Br):C(Br):C(C(:O):O):C(Br):C:4Br)(C4:C(Br):C(Br):C1:C(Br):C:4Br)C1:C(Br):C(Br):C(:C(Br):C:1Br)C(C1:C(Br):C(Br):C2:C(Br):C:1Br)(C1:C(Br):C(Br):C3:C(Br):C:1Br)C1:C(Br):C(Br):C(:C(Br):C:1Br)C12C3:C(Br):C(Br):C(:C(Br):C:3Br)C3(C4:C(Br):C(Br):C(C(:O):O):C(Br):C:4Br)C4:C(Br):C(Br):C(:C(Br):C:4Br)C(C4:C(Br):C(Br):C(C(:O):O):C(Br):C:4Br)(C4:C(Br):C(Br):C(:C(Br):C:4Br)C(C4:C(Br):C(Br):C(C(:O):O):C(Br):C:4Br)(C4:C(Br):C(Br):C3:C(Br):C:4Br)C3:C(Br):C(Br):C1:C(Br):C:3Br)C1:C(Br):C(Br):C2:C(Br):C:1Br___O:C(:O)C1:C(Br):C(Br):C(C(:O):O):C(Br):C:1Br,1
SR_cdme_v1-4c_Cu_1_Ch_v2-4c_ethene_Ch_v3-4c_1anC_Ch_v4-4c_ethene_Ch_1TrU_Ch_1DoU_Ch_2x2x1,0.62947,0.66594,0.914946,1886.88,1726.39,6.43117,4.72712,14326.40595,,,,536,,144,128,128,C39Cu4H8O16,0.063492063,4,4c_Cu_1_Ch,"21,84",O:C(:O)C#CC(C#CC(:O):O)(C#CC(:O):O)C#CC(:O):O___O:C(:O)C=CC1C#CC2C#CC(C=CC(:O):O)=C(C#CC(C#CC=1C=CC(:O):O)=C1C#CC(C=CC(:O):O)=C(C#CC=2C#CC(C=CC(:O):O)=C(C#C1)C=CC(:O):O)C=CC(:O):O)C=CC(:O):O,1
SR_ceh_v1-3c_B_Ch_v2-6c_Mg_1_Ch_v3-4c_1anC_Ch_2B_2SH_Ch_ntn_edge_1x1x2,0.18993,0.70482,0.659387,2801.46,1847.24,10.23255,5.82495,26173.16969,,,,786,,60,60,24,C65H40Mg2O8S16,0.015503876,6,6c_Mg_1_Ch,,None,1
SR_cboe_v1-6c_Cr_1_Ch_v2-6c_Cr_1_Ch_1B_2OH_Ch_ntn_edge_1x1x1,0.17786,0.6828,0.874006,2002.11,1749.85,12.57892,6.84909,64410.63533,,,,2496,,720,720,576,C21Cr3H10O18,0.06122449,6,6c_Cr_1_Ch,"6,18",O:C(:O)C(:O):O___O:C(:O)C1:C:C(O):C(:C:C:1O)C(:O):O,1
SR_cet_v1-3c_B_Ch_v2-6c_Ni_1_Ch_v3-6c_bicyclooctane_Ch_ntn_edge_2B_2NO2_Ch_1x1x1,0.16247,0.67534,0.775911,2361.91,1832.63,9.40384,5.34996,25674.21782,,,,872,,36,36,24,C101H36N24Ni2O55,0.009259259,6,6c_Ni_1_Ch,428,O:C(:O)C1:C:C2:C:C(:C:1)C1:C:C(:C(:C:C:1N(:O):O)C1:C:C(:C(:C:C:1N(:O):O)C1=C3C4:C:C(:C(:C:C:4N(:O):O)C4:C:C(:C(:C:C:4N(:O):O)C4:C:C(:C:C(:C:4)C4:C:C(:C(:C:C:4N(:O):O)C4:C:C(:C(:C:C:4N(:O):O)C4=C(C5:C:C(:C(:C:C:5N(:O):O)C5:C:C(:C2:C:C:5N(:O):O)N(:O):O)N(:O):O)C2C5=C6C7:C:C(:C(:C:C:7N(:O):O)C7:C:C(:C(:C:C:7N(:O):O)C7:C:C(:C:C(:C:7)C7:C:C(:C(:C:C:7N(:O):O)C7:C:C(:C(:C:C:7N(:O):O)C7=C(C8:C:C(:C(:C:C:8N(:O):O)C8:C:C(:C(:C:C:8N(:O):O)C8:C:C(:C:C(:C:8)C8:C:C(:C(:C:C:8N(:O):O)C8:C:C(:C5:C:C:8N(:O):O)N(:O):O)N(:O):O)C(:O):O)N(:O):O)N(:O):O)C1C1=C(C5:C:C(:C(:C:C:5N(:O):O)C5:C:C(:C(:C:C:5N(:O):O)C5:C:C(:C:C(:C:5)C5:C:C(:C(:C:C:5N(:O):O)C5:C:C(:C(:C:C:5N(:O):O)C(=C2C2:C:C(:C(:C:C:2N(:O):O)C2:C:C(:C(:C:C:2N(:O):O)C2:C:C(:C:C(:C:2)C2:C:C(:C(:C:C:2N(:O):O)C2:C:C(:C1:C:C:2N(:O):O)N(:O):O)N(:O):O)C(:O):O)N(:O):O)N(:O):O)C46)N(:O):O)N(:O):O)C(:O):O)N(:O):O)N(:O):O)C37)N(:O):O)N(:O):O)C(:O):O)N(:O):O)N(:O):O)N(:O):O)N(:O):O)C(:O):O)N(:O):O)N(:O):O)N(:O):O)N(:O):O,1
SR_bsn_v1-6c_Zn_1_Ch_1TrU_Ch_2x2x2,0.25374,0.79096,0.754365,3067.88,2314.3,9.41894,8.44548,86454.69532,,,,1856,,1024,1024,768,C12O13Zn4,0.16,6,6c_Zn_1_Ch,8,O:C(:O)C#CC(:O):O,1
SR_cer_v1-3c_B_Ch_v2-6c_bicyclooctane_Ch_v3-6c_CdZn_1_Ch_1DoU_Ch_1B_4H_Ch_2x2x1,0.14555,0.79834,0.551692,3868.57,2134.26,11.58838,9.83586,73958.14948,,,,1744,,256,256,192,C58Cd3H34O13Zn1,0.038095238,6,6c_CdZn_1_Ch,208,O:C(:O)C=CC1:C:C(C=CC(:O):O):C:C(:C:1)C1:C:C:C(:C:C:1)C1=C(C2:C:C:C(:C:C:2)C2:C:C(C=CC(:O):O):C:C(C=CC(:O):O):C:2)C2C(=C(C3:C:C:C(:C:C:3)C3:C:C(C=CC(:O):O):C:C(C=CC(:O):O):C:3)C1C(=C2C1:C:C:C(:C:C:1)C1:C:C(C=CC(:O):O):C:C(C=CC(:O):O):C:1)C1:C:C:C(:C:C:1)C1:C:C(C=CC(:O):O):C:C(C=CC(:O):O):C:1)C1:C:C:C(:C:C:1)C1:C:C(C=CC(:O):O):C:C(C=CC(:O):O):C:1,1
SR_cer_v1-3c_triazine_Ch_v2-6c_bicyclooctane_Ch_v3-6c_Zn_1_Ch_2B_2CF3_Ch_1x1x1,0.06985,0.82776,0.476086,3689.61,1756.57,16.41737,12.54439,75028.13725,,,,1336,,64,64,48,C163F108H37N9O13Zn4,0.012121212,6,6c_Zn_1_Ch,,None,1
SR_cee_v1-3c_B_Ch_v2-6c_B_Ch_v3-4c_Cu_1_Ch_ntn_edge_2B_2CN_Ch_1x1x3,0.60777,0.72884,0.638544,2509.87,1602.66,13.33874,12.16573,26539.84858,,,,738,,81,72,72,C25Cu1H7N4O4,0.025,4,4c_Cu_1_Ch,240,N#CC1:C:C(:C(C#N):C:C:1C1:C:C(:C:C(:C:1)C(:O):O)C(:O):O)C1:C:C(C#N):C(:C:C:1C#N)C1:C(C2:C:C(C#N):C(:C:C:2C#N)C2:C:C(C#N):C(:C:C:2C#N)C2:C:C(:C:C(:C:2)C(:O):O)C(:O):O):C(C2:C:C(C#N):C(:C:C:2C#N)C2:C:C(C#N):C(:C:C:2C#N)C2:C:C(:C:C(:C:2)C(:O):O)C(:O):O):C(C2:C:C(C#N):C(:C:C:2C#N)C2:C:C(C#N):C(:C:C:2C#N)C2:C:C(:C:C(:C:2)C(:O):O)C(:O):O):C(C2:C:C(C#N):C(:C:C:2C#N)C2:C:C(C#N):C(:C:C:2C#N)C2:C:C(:C:C(:C:2)C(:O):O)C(:O):O):C:1C1:C:C(C#N):C(:C:C:1C#N)C1:C:C(C#N):C(:C:C:1C#N)C1:C:C(:C:C(:C:1)C(:O):O)C(:O):O,1
SR_cew_v1-4c_porphyrin_Ch_v2-8c_Co_1_Ch_v3-4c_porphyrin_Ch_ntn_edge_1x1x2,0.36141,0.62206,0.89835,966.631,868.373,16.89948,14.24372,31300.04059,,,,1398,,120,120,96,C128Co4H60N24O17,0.017467249,8,8c_Co_1_Ch,,None,1
SR_bwt_v1-3c_pyrrole_Ch_v2-3c_Cu_imadazoline_Ch_2B_4F_Ch_1x1x1,0.06949,0.8994,0.284473,3743.95,1065.05,29.88501,20.9155,187904.0305,,,,2184,,144,144,144,C49Cu3F24H8N7,0.034090909,3,3c_Cu_imadazoline_Ch,88,FC1:C(F):C(:C(F):C(F):C:1C1:C:N:N:C:1)C1:C(F):C(F):C(:C(F):C:1F)C1:C:C:C(C2:C(F):C(F):C(:C(F):C:2F)C2:C(F):C(F):C(C3:C:N:N:C:3):C(F):C:2F):N:1C1:C(F):C(F):C(:C(F):C:1F)C1:C(F):C(F):C(C2:C:N:N:C:2):C(F):C:1F,1
SR_cdn_v1-4c_Cu_1_Ch_v2-4c_Cu_1_Ch_1TrU_Ch_1B_4H_Ch_2x2x1,1.8579,0.8021,0.569815,4525.23,2578.54,11.28968,7.84372,160129.7348,,,,3840,,1152,1024,1024,C7Cu1H3O4,0.071428571,4,4c_Cu_1_Ch,"8,16",O:C(:O)C#CC(:O):O___O:C(:O)C1:C:C:C(:C:C:1)C(:O):O,1
SR_crsd_v1-8c_Mn_1_Ch_v2-4c_bicyclooctane_Ch_1B_2CF3_Ch_ntn_edge_1x1x1,0.20744,0.62338,1.03079,1362.55,1404.5,7.31686,3.92368,22529.47876,,,,968,,160,160,128,C48Cl1F24H12Mn4N32,0.034188034,8,8c_Mn_1_Ch,"96,10",FC(F)(F)C1:C:C(C2:N:N:N:N:2):C(:C:C:1C1=CC2(C=C(C3:C:C(:C(:C:C:3C(F)(F)F)C3:N:N:N:N:3)C(F)(F)F)C1C(=C2)C1:C:C(:C(:C:C:1C(F)(F)F)C1:N:N:N:N:1)C(F)(F)F)C1:C:C(:C(:C:C:1C(F)(F)F)C1:N:N:N:N:1)C(F)(F)F)C(F)(F)F___N1:N:N:C(:N:1)C1:N:N:N:N:1,1
SR_ceg_v1-3c_triazine_Ch_v2-6c_Ni_1_Ch_v3-4c_porphyrin_Ch_ntn_edge_2B_2NO2_Ch_1x2x1,0.16401,0.7907,0.512773,3639.76,1866.37,14.64527,9.61571,28784.75008,,,,664,,36,36,24,C78H28N27Ni2O31,0.012195122,6,6c_Ni_1_Ch,,None,1
SR_buh_v1-4c_bicyclooctane_Ch_v2-12c_Zr_1_Ch_v3-12c_Zr_1_Ch_1TrU_Ch_1x1x1,0.25262,0.66652,0.937727,1985.64,1861.99,10.13111,4.70686,25449.72653,,,,912,,384,384,192,C30H8O16Zr3,0.055555556,12,12c_Zr_1_Ch,32,O:C(:O)C#CC1=CC2(C#CC(:O):O)C=C(C#CC(:O):O)C1C(C#CC(:O):O)=C2,1
SR_buh_v1-4c_bicyclooctane_Ch_v2-12c_Zr_1_Ch_v3-12c_Zr_1_Ch_2B_2CN_Ch_1x1x1,0.12716,0.74216,0.590965,3437,2031.15,14.95482,6.66574,101953.5076,,,,3024,,384,384,192,C114H32N24O16Zr3,0.016129032,12,12c_Zr_1_Ch,120,N#CC1:C:C(:C(C#N):C:C:1C1=CC2(C=C(C3:C:C(C#N):C(:C:C:3C#N)C3:C:C(C#N):C(:C:C:3C#N)C(:O):O)C1C(=C2)C1:C:C(C#N):C(:C:C:1C#N)C1:C:C(C#N):C(:C:C:1C#N)C(:O):O)C1:C:C(C#N):C(:C:C:1C#N)C1:C:C(C#N):C(:C:C:1C#N)C(:O):O)C1:C:C(C#N):C(:C:C:1C#N)C(:O):O,1
SR_crsd_v1-8c_Co_2_Ch_v2-4c_bicyclooctane_Ch_1B_4H_Ch_ntn_edge_1x1x1,0.26869,0.69816,0.74442,3229.38,2404.01,7.94734,5.21285,21632.80747,,,,840,,160,160,128,C48Cl1Co4H28N24,0.03960396,8,8c_Co_2_Ch,"12,76",C1:N:N:N:C1C1C:N:N:N:1___C1=C(C2:C:C:C(:C:C:2)C2C:N:N:N:2)C2C(=CC1(C=C2C1:C:C:C(:C:C:1)C1C:N:N:N:1)C1:C:C:C(:C:C:1)C1C:N:N:N:1)C1:C:C:C(:C:C:1)C1C:N:N:N:1,1
SR_ceh_v1-3c_pyrrole_Ch_v2-6c_Mg_1_Ch_v3-4c_bicyclooctane_Ch_ntn_edge_1B_2SH_Ch_2x2x3,0.27854,0.47772,1.17145,0,0,5.21073,2.47916,59865.69399,,,,3240,,360,360,144,C22H13Mg1N1O4S4,0.022727273,6,6c_Mg_1_Ch,,None,1
SR_ced_v1-3c_B_Ch_v2-12c_Mn_1_Ch_2TrU_Ch_2x2x1,0.16328,0.81792,0.435419,5154.65,2244.43,14.13627,8.27567,38528.5802,,,,644,,168,168,72,C108H18Mn8O27,0.052287582,12,12c_Mn_1_Ch,50,OC(:O)C#CC#CC1:C:C(C#CC#CC(:O):O):C:C(C#CC#CC2:C:C(C#CC#CC(O):O):C:C(C#CC#CC(:O):O):C:2):C:1,1