name,k,VF,density,ASA_grav,ASA_vol,LPD,PLD,volume,,,,N_atoms,,N_metal_containing_bonds,N_metal_nonmetal_bonds,N_metal_linker_bonds,formula,metal_nonmetal_ratio,metal_node_connectivity,metal_node_name,N_atoms_per_linker,linker_SMILES,N_ccs
SR_bik_v1-4c_Cd_1_Ch_v2-4c_bicyclooctane_Ch_1B_2CH3_Ch_1x1x2,0.11475,0.8241,0.404163,5006.34,2023.38,14.53218,12.46395,42810.15488,,,,1072,,128,128,128,C32Cd1H26O8,0.015151515,4,4c_Cd_1_Ch,"22,264",CC1:C:C(C(:O):O):C(C):C:C:1C(:O):O___CC1:C:C(C(:O):O):C(C):C:C:1C1=CC23C=C(C4:C:C(C):C(:C:C:4C)C(:O):O)C1C(=C2)C1:C:C(C):C(:C:C:1C)C12C=C(C4:C:C(C):C(:C:C:4C)C(:O):O)C(C(=C1)C1:C:C(C):C(:C:C:1C)C(:O):O)C(=C2)C1:C:C(C):C(:C:C:1C)C12C=C(C4:C:C(C):C(:C:C:4C)C(:O):O)C(C(=C1)C1:C:C(C):C(:C:C:1C)C(:O):O)C(=C2)C1:C:C(C):C(:C:C:1C)C12C=C(C4:C:C(C):C(:C:C:4C)C(:O):O)C(C(=C1)C1:C:C(C):C(:C:C:1C)C(:O):O)C(=C2)C1:C:C(C):C3:C:C:1C,1
SR_bix_v1-4c_bicyclooctane_Ch_v2-6c_CdZn_1_Ch_v3-6c_CdZn_1_Ch_1TrU_Ch_ntn_edge_1x1x1,0.115,0.75094,0.871774,2436.33,2123.93,11.82125,6.97364,57354.24558,,,,1600,,512,512,384,C27Cd3H6O13Zn1,0.086956522,6,6c_CdZn_1_Ch,30,O:C(:O)C#CC1=CC2(C#CC(:O):O)C=C(C#CC(:O):O)C1C(=C2)C(:O):O,1
SR_bcu_v1-8c_Co_1_Ch_ntn_edge_3x3x3,4.05709,0.35652,2.36816,0,0,3.28454,2.11223,22946.27058,,,,1566,,1080,1080,864,C8Co4O17,0.16,8,8c_Co_1_Ch,6,O:C(:O)C(:O):O,1
SR_bcx_v1-4c_bicyclooctane_Ch_v2-4c_Cd_1_Ch_1TrU_Ch_1x1x1,0.07888,0.87372,0.369197,4723.77,1744,18.34089,10.66203,41653.66004,,,,536,,192,192,192,C36Cd3H4O24,0.046875,4,4c_Cd_1_Ch,"8,56",O:C(:O)C#CC(:O):O___O:C(:O)C#CC1=CC2(C#CC34C=C(C#CC(:O):O)C(C(C#CC(:O):O)=C3)C(C#CC(:O):O)=C4)C=C(C#CC(:O):O)C1C(C#CC(:O):O)=C2,1
SR_bcz_v1-4c_1anC_Ch_v2-4c_In_1_Ch_1B_2CF3_Ch_1x1x1,0.08146,0.75398,0.715366,2769.25,1981.03,13.84282,9.10471,52003.50139,,,,1476,,192,192,192,C57F36H12In2O16,0.016528926,4,4c_In_1_Ch,"22,165",O:C(:O)C1:C:C(:C(:C:C:1C(F)(F)F)C(:O):O)C(F)(F)F___O:C(:O)C1:C:C(:C(:C:C:1C(F)(F)F)C1(C2:C:C(:C(:C:C:2C(F)(F)F)C(:O):O)C(F)(F)F)C2:C:C(:C(:C:C:2C(F)(F)F)C(C2:C:C(:C(:C:C:2C(F)(F)F)C(:O):O)C(F)(F)F)(C2:C:C(:C(:C:C:2C(F)(F)F)C(:O):O)C(F)(F)F)C2:C:C(:C(:C:C:2C(F)(F)F)C(C2:C:C(:C(:C:C:2C(F)(F)F)C(:O):O)C(F)(F)F)(C2:C:C(:C(:C:C:2C(F)(F)F)C(:O):O)C(F)(F)F)C2:C:C(:C1:C:C:2C(F)(F)F)C(F)(F)F)C(F)(F)F)C(F)(F)F)C(F)(F)F,1
SR_bcuk_v1-6c_Cr_1_Ch_1TrU_Ch_1x1x1,0.44385,0.76192,0.716341,2573.72,1843.66,19.96291,8.99455,56536.36404,,,,1344,,720,720,576,C12Cr3O13,0.12,6,6c_Cr_1_Ch,8,O:C(:O)C#CC(:O):O,1
SR_bpl_v1-3c_Cu_imadazoline_Ch_v2-3c_B_Ch_1B_2OH_Ch_1x1x1,0.07504,0.9285,0.19007,6235.76,1185.23,22.90103,16.09943,110178.8031,,,,1104,,96,96,96,C11Cu1H7N2O2,0.045454545,3,3c_Cu_imadazoline_Ch,"160,26",OC1:C:C(C2:C:C3:C:C(:C:2)C2:C:C(O):C(:C:C:2O)C2:C:C(:C:C(:C:2)C2:C:C(O):C(:C:C:2O)C2:C:C(:C:C(:C:2)C2:C:C(O):C(:C:C:2O)C2:C:C(:C:C(:C:2)C2:C:C(O):C3:C:C:2O)C2:C:C(O):C(:C:C:2O)C2:C:N:N:C:2)C2:C:C(O):C(:C:C:2O)C2:C:N:N:C:2)C2:C:C(O):C(:C:C:2O)C2:C:N:N:C:2):C(O):C:C:1C1:C:N:N:C:1___OC1:C:C(C2:C:N:N:C:2):C(O):C:C:1C1:C:N:N:C:1,1
SR_brk_v1-3c_triazine_Ch_v2-3c_triazine_Ch_v3-6c_Zn_1_Ch_1DoU_Ch_1TrU_Ch_1x1x1,0.12223,0.8449,0.465011,4176.91,1942.31,13.72714,10.3181,24224.36232,,,,424,,128,128,96,C24H6N6O13Zn4,0.081632653,6,6c_Zn_1_Ch,"21,27",O:C(:O)C#CC1:N:C(C#CC(:O):O):N:C(C#CC(:O):O):N:1___O:C(:O)C=CC1:N:C(C=CC(:O):O):N:C(C=CC(:O):O):N:1,1
SR_brk_v1-3c_triazine_Ch_v2-3c_triazine_Ch_v3-6c_Ni_1_Ch_1B_2F_Ch_1x1x1,0.11108,0.83182,0.474497,3792.74,1799.64,14.02609,11.89789,38117.42284,,,,784,,144,144,96,C24F6H7N3Ni2O7,0.042553191,6,6c_Ni_1_Ch,45,O:C(:O)C1:C:C(F):C(:C:C:1F)C1:N:C(:N:C(:N:1)C1:C:C(F):C(:C:C:1F)C(:O):O)C1:C:C(F):C(:C:C:1F)C(:O):O,1
SR_bpk_v1-3c_Cu_imadazoline_Ch_v2-3c_Cu_imadazoline_Ch_1B_2SH_Ch_ntn_edge_1x1x1,0.06154,0.93598,0.207071,5382.48,1114.55,24.60243,17.60835,117771.3052,,,,960,,192,192,192,C12Cu3H8N6S1,0.111111111,3,3c_Cu_imadazoline_Ch,"14,26",C1:N:N:C:C:1C1:C:N:N:C:1___SC1:C:C(C2:C:N:N:C:2):C(S):C:C:1C1:C:N:N:C:1,1
SR_bpq_v1-6c_Zr_1_Ch_v2-4c_B_Ch_1B_2SH_Ch_1x1x2,0.11423,0.7447,0.709979,2695.14,1913.49,10.62789,7.34353,36089.58723,,,,1072,,384,384,96,C21H22O16S5Zr3,0.046875,6,6c_Zr_1_Ch,"18,68",O:C(:O)C1:C:C(S):C(:C:C:1S)C(:O):O___O:C(:O)C1:C:C(S):C(:C:C:1S)C1:C:C(C2:C:C(S):C(:C:C:2S)C(:O):O):C(:C:C:1C1:C:C(S):C(:C:C:1S)C(:O):O)C1:C:C(S):C(:C:C:1S)C(:O):O,1
SR_bpg_v1-3c_Cu_imadazoline_Ch_v2-3c_B_Ch_1B_2CF3_Ch_ntn_edge_1x3x2,0.17643,0.75778,0.711663,2050.37,1459.17,16.2748,15.18339,85061.75603,,,,2352,,288,288,288,C23Cu3F6H11N6,0.065217391,3,3c_Cu_imadazoline_Ch,"192,30",C1:N:N:C:C:1C1:C:C2:C:C(:C:1)C1:C:C(:C:C(:C:1)C1:C:C(:C:C(:C:1)C1:C:C(:C:C(:C:1)C1:C:C(:C:C(:C:1)C1:C:C(:C:C(:C:1)C1:C:C(:C:C(:C:1)C1:C:C(:C:C(:C:1)C1:C:C(:C:C(:C:1)C1:C:C(:C:C(:C:1)C1:C:C(:C:C(:C:1)C1:C:C(:C:C2:C:1)C1:C:N:N:C:1)C1:C:N:N:C:1)C1:C:N:N:C:1)C1:C:N:N:C:1)C1:C:N:N:C:1)C1:C:N:N:C:1)C1:C:N:N:C:1)C1:C:N:N:C:1)C1:C:N:N:C:1)C1:C:N:N:C:1)C1:C:N:N:C:1___FC(F)(F)C1:C:C(C2:C:N:N:C:2):C(:C:C:1C1:C:N:N:C:1)C(F)(F)F,1
SR_bpq_v1-6c_Zr_1_Ch_v2-4c_B_Ch_1TrU_Ch_1DoU_Ch_1x2x2,0.22781,0.72492,0.825093,2695.38,2223.94,10.09392,7.0385,43463.36586,,,,1376,,768,768,192,C11H13O16Zr3,0.075,6,6c_Zr_1_Ch,"28,10",O:C(:O)C#CC1:C:C(C#CC(:O):O):C(C#CC(:O):O):C:C:1C#CC(:O):O___O:C(:O)C=CC(:O):O,1
SR_bon_v1-8c_Co_2_Ch_v2-8c_Co_1_Ch_ntn_edge_1B_2Br_Ch_1x1x1,0.19975,0.64126,1.14807,1247.51,1432.24,20.97405,6.49365,99040.63267,,,,3852,,1200,1200,960,Br16C120Cl4Co20H48N96O17,0.066445183,8,"8c_Co_1_Ch,8c_Co_2_Ch","12,19",C1:N:N:N:C1C1C:N:N:N:1___O:C(:O)C1:C:C(Br):C(:C:C:1Br)C1C:N:N:N:1,1
SR_bpk_v1-3c_Cu_imadazoline_Ch_v2-3c_Cu_imadazoline_Ch_1B_4CN_Ch_ntn_edge_1x1x1,0.10598,0.92762,0.221632,5532.68,1226.22,23.44476,17.08806,114344.7814,,,,992,,192,192,192,C14Cu3H6N8,0.107142857,3,3c_Cu_imadazoline_Ch,"14,28",C1:N:N:C:C:1C1:C:N:N:C:1___N#CC1:C(C#N):C(C2:C:N:N:C:2):C(C#N):C(C#N):C:1C1:C:N:N:C:1,1
SR_brk_v1-3c_triazine_Ch_v2-3c_triazine_Ch_v3-6c_Zn_1_Ch_2TrU_Ch_1TrU_Ch_1x1x1,0.09535,0.88394,0.335041,5169.17,1731.88,15.45765,12.75615,36236.78165,,,,424,,128,128,96,C30N6O13Zn4,0.081632653,6,6c_Zn_1_Ch,"27,21",O:C(:O)C#CC#CC1:N:C(C#CC#CC(:O):O):N:C(C#CC#CC(:O):O):N:1___O:C(:O)C#CC1:N:C(C#CC(:O):O):N:C(C#CC(:O):O):N:1,1
SR_bps_v1-3c_triazine_Ch_v2-3c_Cu_imadazoline_Ch_ntn_edge_1B_2CN_Ch_1x1x1,0.11785,0.92454,0.188936,6126.99,1157.61,25.37027,17.51826,73785.10934,,,,672,,48,48,48,C47Cu3H14N20,0.037037037,3,3c_Cu_imadazoline_Ch,"14,148",C1:N:N:C:C:1C1:C:N:N:C:1___N#CC1:C:C(C2:N:C3:N:C(:N:2)C2:C:C(C#N):C(:C:C:2C#N)C2:N:C(:N:C(:N:2)C2:C:C(C#N):C(:C:C:2C#N)C2:N:C(:N:C(:N:2)C2:C:C(C#N):C(:C:C:2C#N)C2:N:C(:N:C(:N:2)C2:C:C(C#N):C3:C:C:2C#N)C2:C:C(C#N):C(:C:C:2C#N)C2:C:N:N:C:2)C2:C:C(C#N):C(:C:C:2C#N)C2:C:N:N:C:2)C2:C:C(C#N):C(:C:C:2C#N)C2:C:N:N:C:2):C(C#N):C:C:1C1:C:N:N:C:1,1
SR_bpa_v1-3c_Cu_imadazoline_Ch_v2-3c_triazine_Ch_ntn_edge_1B_2F_Ch_1x1x2,0.12578,0.88444,0.334161,5550.74,1854.84,13.98437,10.39616,54943.63743,,,,800,,96,96,96,C24Cu3F4H10N9,0.063829787,3,3c_Cu_imadazoline_Ch,"14,80",C1:N:N:C:C:1C1:C:N:N:C:1___FC1:C:C(C2:N:C(:N:C(:N:2)C2:C:C(F):C(:C:C:2F)C2:C:N:N:C:2)C2:N:C(:N:C(:N:2)C2:C:C(F):C(:C:C:2F)C2:C:N:N:C:2)C2:C:C(F):C(:C:C:2F)C2:C:N:N:C:2):C(F):C:C:1C1:C:N:N:C:1,1
SR_bpv_v1-3c_B_Ch_v2-3c_Cu_imadazoline_Ch_2B_1DoU_Ch_ntn_edge_1x1x1,0.06489,0.97072,0.0594908,8046.61,478.699,43.69428,34.1035,279562.5903,,,,1104,,48,48,48,C77Cu3H52N6,0.022222222,3,3c_Cu_imadazoline_Ch,"256,14",C(=CC1:C:C:C(:C:C:1)C1:C:C2:C:C(:C:1)C1:C:C:C(C=CC3:C:C:C(:C:C:3)C3:C:C(:C:C(:C:3)C3:C:C:C(C=CC4:C:C:C(:C:C:4)C4:C:C(:C:C(:C:4)C4:C:C:C(C=CC5:C:C:C(:C:C:5)C5:C:C(:C:C(:C:5)C5:C:C:C(C=CC6:C:C:C2:C:C:6):C:C:5)C2:C:C:C(C=CC5:C:C:C(:C:C:5)C5:C:N:N:C:5):C:C:2):C:C:4)C2:C:C:C(C=CC4:C:C:C(:C:C:4)C4:C:N:N:C:4):C:C:2):C:C:3)C2:C:C:C(C=CC3:C:C:C(:C:C:3)C3:C:N:N:C:3):C:C:2):C:C:1)C1:C:C:C(:C:C:1)C1:C:N:N:C:1___C1:N:N:C:C:1C1:C:N:N:C:1,1
SR_bpk_v1-3c_Cu_imadazoline_Ch_v2-3c_Cu_imadazoline_Ch_2B_fused_Ch_1x1x1,0.05957,0.96934,0.0839052,6517.21,546.828,35.00488,27.76442,366091.422,,,,1536,,192,192,192,C8Cu1H5N2,0.066666667,3,3c_Cu_imadazoline_Ch,30,C1:C:C2:C:C(:C:C:C:2:C:C:1C1:C:N:N:C:1)C1:C:N:N:C:1,1
SR_bpl_v1-3c_Cu_imadazoline_Ch_v2-3c_Cu_imadazoline_Ch_2TrU_Ch_ntn_edge_1TrU_Ch_1x1x1,0.12283,0.95826,0.133435,6100.46,814.012,28.22064,24.77773,169190.8101,,,,864,,192,192,192,C4Cu1H2N2,0.125,3,3c_Cu_imadazoline_Ch,"16,18,14",C(#CC1:C:N:N:C:1)C1:C:N:N:C:1___C(C#CC1:C:N:N:C:1)#CC1:C:N:N:C:1___C1:N:N:C:C:1C1:C:N:N:C:1,1
SR_bpk_v1-3c_Cu_imadazoline_Ch_v2-3c_B_Ch_ntn_edge_1B_2F_Ch_1x1x1,0.16748,0.90674,0.261839,5715.56,1496.56,17.55905,13.7668,69818.74,,,,848,,96,96,96,C27Cu3F4H13N6,0.06,3,3c_Cu_imadazoline_Ch,"14,144",C1:N:N:C:C:1C1:C:N:N:C:1___FC1:C:C(C2:C:C3:C:C(:C:2)C2:C:C(F):C(:C:C:2F)C2:C:C(:C:C(:C:2)C2:C:C(F):C(:C:C:2F)C2:C:C(:C:C(:C:2)C2:C:C(F):C(:C:C:2F)C2:C:C(:C:C(:C:2)C2:C:C(F):C3:C:C:2F)C2:C:C(F):C(:C:C:2F)C2:C:N:N:C:2)C2:C:C(F):C(:C:C:2F)C2:C:N:N:C:2)C2:C:C(F):C(:C:C:2F)C2:C:N:N:C:2):C(F):C:C:1C1:C:N:N:C:1,1
SR_brk_v1-3c_triazine_Ch_v2-3c_triazine_Ch_v3-6c_Ni_1_Ch_1B_2thiophene_Ch_1x1x1,0.07821,0.90882,0.241874,5163.12,1248.82,22.67534,19.702,99931.45508,,,,1072,,144,144,96,C36H13N3Ni2O7S6,0.030769231,6,6c_Ni_1_Ch,63,O:C(:O)C1:C:C2:C:C3:S:C(:C:C:3:C:C:2:S:1)C1:N:C(:N:C(:N:1)C1:C:C2:C:C3:S:C(:C:C:3:C:C:2:S:1)C(:O):O)C1:C:C2:C:C3:S:C(:C:C:3:C:C:2:S:1)C(:O):O,1
SR_bpv_v1-3c_B_Ch_v2-3c_Cu_imadazoline_Ch_2B_4CN_Ch_ntn_edge_1x1x1,0.17403,0.91026,0.215269,5939.82,1278.66,27.6142,24.50804,76741.18725,,,,784,,48,48,48,C61Cu3H12N22,0.031578947,3,3c_Cu_imadazoline_Ch,"14,176",C1:N:N:C:C:1C1:C:N:N:C:1___N#CC1:C(C#N):C2:C(C#N):C(C#N):C:1C1:C:C(:C:C(:C:1)C1:C(C#N):C(C#N):C(:C(C#N):C:1C#N)C1:C(C#N):C(C#N):C(C3:C:C(:C:C(:C:3)C3:C(C#N):C(C#N):C(:C(C#N):C:3C#N)C3:C(C#N):C(C#N):C(C4:C:C(:C:C(:C:4)C4:C(C#N):C(C#N):C(:C(C#N):C:4C#N)C4:C(C#N):C(C#N):C(C5:C:C(:C:C(:C:5)C5:C(C#N):C(C#N):C2:C(C#N):C:5C#N)C2:C:N:N:C:2):C(C#N):C:4C#N)C2:C:N:N:C:2):C(C#N):C:3C#N)C2:C:N:N:C:2):C(C#N):C:1C#N)C1:C:N:N:C:1,1
SR_bpo_v1-3c_Cu_imadazoline_Ch_v2-3c_Cu_imadazoline_Ch_ntn_edge_1B_2DoU_Ch_1x1x1,0.06947,0.97196,0.0796018,6767.56,538.71,34.05793,30.70158,172559.7096,,,,672,,96,96,96,C19Cu3H14N6,0.076923077,3,3c_Cu_imadazoline_Ch,"32,14",C(=CC1:C:N:N:C:1)C1:C:C:C(C=CC2:C:N:N:C:2):C:C:1___C1:N:N:C:C:1C1:C:N:N:C:1,1
SR_boe_v1-3c_Cu_imadazoline_Ch_v2-3c_Cu_imadazoline_Ch_ntn_edge_2B_fused_Ch_1x1x1,0.1329,0.89224,0.348513,5258.97,1832.82,20.89897,10.9561,20331.46696,,,,288,,60,60,60,C20Cu5H13N10,0.11627907,3,3c_Cu_imadazoline_Ch,"30,14",C1:C:C2:C:C(:C:C:C:2:C:C:1C1:C:N:N:C:1)C1:C:N:N:C:1___C1:N:N:C:C:1C1:C:N:N:C:1,1
SR_bps_v1-3c_Cu_imadazoline_Ch_v2-3c_triazine_Ch_ntn_edge_1B_2SH_Ch_1x1x1,0.04579,0.9394,0.172511,5533.9,954.66,29.07778,20.1177,92891.49121,,,,672,,96,96,96,C36Cu6H22N15S5,0.076923077,3,3c_Cu_imadazoline_Ch,"14,100",C1:N:N:C:C:1C1:C:N:N:C:1___SC1:C:C(C2:N:C(:N:C(:N:2)C2:C:C(S):C(:C:C:2S)C2:N:C(:N:C(:N:2)C2:C:C(S):C(:C:C:2S)C2:C:N:N:C:2)C2:C:C(S):C(:C:C:2S)C2:C:N:N:C:2)C2:C:C(S):C(:C:C:2S)C2:C:N:N:C:2):C(S):C:C:1C1:C:N:N:C:1,1
SR_bpq_v1-6c_Ni_1_Ch_v2-4c_B_Ch_1B_2NH2_Ch_ntn_edge_1x2x2,0.15096,0.79578,0.548222,3036.45,1664.65,14.25986,11.43371,49987.64057,,,,1440,,288,288,192,C18H14N4Ni2O7,0.046511628,6,6c_Ni_1_Ch,"76,6",NC1:C:C(:C(N):C:C:1C(:O):O)C1:C:C(C2:C:C(N):C(:C:C:2N)C(:O):O):C(:C:C:1C1:C:C(N):C(:C:C:1N)C(:O):O)C1:C:C(N):C(:C:C:1N)C(:O):O___O:C(:O)C(:O):O,1
SR_bon_v1-8c_Co_1_Ch_v2-8c_Co_1_Ch_1B_2CN_Ch_1x1x1,0.18257,0.63704,0.961148,1298.65,1248.19,20.69662,4.98758,114887.3626,,,,4620,,1200,1200,960,C40Co4H8N8O17,0.054794521,8,8c_Co_1_Ch,18,N#CC1:C:C(C(:O):O):C(C#N):C:C:1C(:O):O,1
SR_bpm_v1-3c_Cu_imadazoline_Ch_v2-3c_Cu_imadazoline_Ch_1B_2OH_Ch_ntn_edge_1x1x1,0.06305,0.94542,0.175602,5533.21,971.644,25.47213,22.09918,67007.54359,,,,480,,96,96,96,C12Cu3H8N6O1,0.111111111,3,3c_Cu_imadazoline_Ch,"14,26",C1:N:N:C:C:1C1:C:N:N:C:1___OC1:C:C(C2:C:N:N:C:2):C(O):C:C:1C1:C:N:N:C:1,1
SR_bpq_v1-6c_Ni_1_Ch_v2-4c_B_Ch_ntn_edge_1B_2F_Ch_1x2x2,0.14967,0.80504,0.569934,2892.28,1648.41,14.25513,11.49397,49193.01656,,,,1184,,288,288,192,C18F4H6Ni2O7,0.057142857,6,6c_Ni_1_Ch,"6,60",O:C(:O)C(:O):O___O:C(:O)C1:C:C(F):C(:C:C:1F)C1:C:C(C2:C:C(F):C(:C:C:2F)C(:O):O):C(:C:C:1C1:C:C(F):C(:C:C:1F)C(:O):O)C1:C:C(F):C(:C:C:1F)C(:O):O,1
SR_brk_v1-3c_triazine_Ch_v2-3c_triazine_Ch_v3-6c_CdZn_1_Ch_1B_2OH_Ch_1x1x1,0.09605,0.84678,0.454615,3949.52,1795.51,14.94857,12.19426,43462.17401,,,,856,,128,128,96,C48Cd3H24N6O25Zn1,0.038834951,6,6c_CdZn_1_Ch,51,O:C(:O)C1:C:C(O):C(:C:C:1O)C1:N:C(:N:C(:N:1)C1:C:C(O):C(:C:C:1O)C(:O):O)C1:C:C(O):C(:C:C:1O)C(:O):O,1
SR_bpg_v1-3c_B_Ch_v2-3c_Cu_imadazoline_Ch_1TrU_Ch_1B_4H_Ch_1x1x1,0.27157,0.9265,0.196073,6547.64,1283.82,23.04089,18.714,41960.26444,,,,376,,48,48,48,C25Cu3H13N6,0.068181818,3,3c_Cu_imadazoline_Ch,"80,24",C(#CC1:C:C2C#CC3:C:C(C#CC4:C:N:N:C:4):C:C(C#CC4:C:C(C#CC5:C:N:N:C:5):C:C(C#CC5:C:C(C#CC6:C:N:N:C:6):C:C(C#CC(:C:1):C:2):C:5):C:4):C:3)C1:C:N:N:C:1___C1:C:C(:C:C:C:1C1:C:N:N:C:1)C1:C:N:N:C:1,1
SR_bpv_v1-3c_Cu_imadazoline_Ch_v2-3c_triazine_Ch_1B_2F_Ch_ntn_edge_1x1x1,0.10269,0.93366,0.219784,5077.51,1115.95,26.86473,21.73512,55110.74912,,,,472,,96,96,96,C24Cu6F1H13N15,0.113207547,3,3c_Cu_imadazoline_Ch,"14,50",C1:N:N:C:C:1C1:C:N:N:C:1___FC1:C:C(C2:N:C(:N:C(:N:2)C2:C:N:N:C:2)C2:C:N:N:C:2):C(F):C:C:1C1:N:C(:N:C(:N:1)C1:C:N:N:C:1)C1:C:N:N:C:1,1
SR_bpk_v1-3c_Cu_imadazoline_Ch_v2-3c_Cu_imadazoline_Ch_2B_2CN_Ch_ntn_edge_1x1x1,0.04738,0.96416,0.0977953,6628.62,648.248,30.74587,26.14664,348325.5809,,,,1536,,192,192,192,C25Cu3H10N10,0.066666667,3,3c_Cu_imadazoline_Ch,"14,38",C1:N:N:C:C:1C1:C:N:N:C:1___N#CC1:C:C(:C(C#N):C:C:1C1:C:N:N:C:1)C1:C:C(C#N):C(:C:C:1C#N)C1:C:N:N:C:1,1
SR_brk_v1-3c_B_Ch_v2-3c_B_Ch_v3-6c_CdZn_1_Ch_1DoU_Ch_1x1x1,0.11438,0.83122,0.549756,3565.35,1960.07,12.78679,10.57468,23908.83212,,,,520,,128,128,96,C30Cd3H18O13Zn1,0.06557377,6,6c_CdZn_1_Ch,30,O:C(:O)C=CC1:C:C(C=CC(:O):O):C:C(C=CC(:O):O):C:1,1
SR_bpq_v1-6c_CdZn_1_Ch_v2-4c_B_Ch_2B_2Br_Ch_1x1x1,0.03876,0.87308,0.482804,2791.54,1347.77,20.96378,19.37003,42589.37752,,,,524,,64,64,48,Br20C72Cd3H22O13Zn1,0.031496063,6,6c_CdZn_1_Ch,"26,100",O:C(:O)C1:C:C(Br):C(:C:C:1Br)C1:C:C(Br):C(:C:C:1Br)C(:O):O___O:C(:O)C1:C:C(Br):C(:C:C:1Br)C1:C:C(Br):C(:C:C:1Br)C1:C:C(C2:C:C(Br):C(:C:C:2Br)C2:C:C(Br):C(:C:C:2Br)C(:O):O):C(:C:C:1C1:C:C(Br):C(:C:C:1Br)C1:C:C(Br):C(:C:C:1Br)C(:O):O)C1:C:C(Br):C(:C:C:1Br)C1:C:C(Br):C(:C:C:1Br)C(:O):O,1
SR_bnnt_v1-4c_In_1_Ch_v2-4c_In_1_Ch_v3-4c_In_1_Ch_1TrU_Ch_1DoU_Ch_1B_4H_Ch_1x1x1,0.05748,0.89768,0.310678,4395.97,1365.73,39.83148,27.32214,163624.4063,,,,1584,,576,576,576,C10H3In1O8,0.047619048,4,4c_In_1_Ch,"8,16,10",O:C(:O)C#CC(:O):O___O:C(:O)C1:C:C:C(:C:C:1)C(:O):O___O:C(:O)C=CC(:O):O,1
SR_brk_v1-3c_triazine_Ch_v2-3c_pyrrole_Ch_v3-6c_Zn_1_Ch_2B_4F_Ch_1x1x1,0.04966,0.89488,0.305464,4492,1372.15,22.64023,17.81199,107002.3576,,,,1248,,128,128,96,C85F48H2N4O13Zn4,0.026315789,6,6c_Zn_1_Ch,"76,75",O:C(:O)C1:C(F):C(F):C(:C(F):C:1F)C1:C(F):C(F):C(:C(F):C:1F)C1:C:C:C(C2:C(F):C(F):C(:C(F):C:2F)C2:C(F):C(F):C(C(:O):O):C(F):C:2F):N:1C1:C(F):C(F):C(:C(F):C:1F)C1:C(F):C(F):C(C(:O):O):C(F):C:1F___O:C(:O)C1:C(F):C(F):C(:C(F):C:1F)C1:C(F):C(F):C(C2:N:C(:N:C(:N:2)C2:C(F):C(F):C(:C(F):C:2F)C2:C(F):C(F):C(C(:O):O):C(F):C:2F)C2:C(F):C(F):C(:C(F):C:2F)C2:C(F):C(F):C(C(:O):O):C(F):C:2F):C(F):C:1F,1
SR_bpm_v1-3c_B_Ch_v2-3c_Cu_imadazoline_Ch_ntn_edge_1B_4F_Ch_1x2x1,0.32482,0.81018,0.571984,3713.19,2123.89,12.68969,10.7947,28430.39121,,,,688,,96,96,96,C21Cu3F4H9N6,0.075,3,3c_Cu_imadazoline_Ch,"14,208",C1:N:N:C:C:1C1:C:N:N:C:1___FC1:C(F):C(C2:C:C3:C:C(:C:2)C2:C:C(:C:C(:C:2)C2:C(F):C(F):C(C4:C:N:N:C:4):C(F):C:2F)C2:C:C(:C:C(:C:2)C2:C(F):C(F):C(C4:C:N:N:C:4):C(F):C:2F)C2:C:C(:C:C(:C:2)C2:C(F):C(F):C(C4:C:N:N:C:4):C(F):C:2F)C2:C:C(:C:C(:C:2)C2:C(F):C(F):C(C4:C:N:N:C:4):C(F):C:2F)C2:C:C(:C:C(:C:2)C2:C(F):C(F):C(C4:C:N:N:C:4):C(F):C:2F)C2:C:C(:C:C(:C:2)C2:C(F):C(F):C(C4:C:N:N:C:4):C(F):C:2F)C2:C:C3:C:C(:C:2)C2:C(F):C(F):C(C3:C:N:N:C:3):C(F):C:2F):C(F):C(F):C:1C1:C:N:N:C:1,1
SR_bps_v1-3c_triazine_Ch_v2-3c_Cu_imadazoline_Ch_ntn_edge_1B_2OH_Ch_1x1x1,0.10067,0.91242,0.239038,5505.32,1315.98,23.18592,16.36312,42299.12256,,,,480,,48,48,48,C27Cu3H14N12O4,0.052631579,3,3c_Cu_imadazoline_Ch,"14,100",C1:N:N:C:C:1C1:C:N:N:C:1___OC1:C:C2C3:N:C(:N:C(:N:3)C3:C:C(O):C(:C:C:3O)C3:N:C(:N:C(:N:3)C3:C:C(O):C(:C:C:3O)C3:N:C(:N:C(:N:3)C3:C:C(O):C(:C:C:3O)C3:N:C(:N:C(:N:3)C:1:C:C:2O)C1:C:N:N:C:1)C1:C:N:N:C:1)C1:C:N:N:C:1)C1:C:N:N:C:1,1
SR_brk_v1-3c_B_Ch_v2-3c_triazine_Ch_v3-6c_Ni_1_Ch_2B_2SH_Ch_1x1x1,0.06504,0.87686,0.302281,4867.75,1471.43,20.33332,16.55867,104151.3674,,,,1480,,144,144,96,C87H53N3Ni4O14S24,0.022099448,6,6c_Ni_1_Ch,"90,87",O:C(:O)C1:C:C(S):C(:C:C:1S)C1:C:C(S):C(:C:C:1S)C1:C:C(:C:C(:C:1)C1:C:C(S):C(:C:C:1S)C1:C:C(S):C(:C:C:1S)C(:O):O)C1:C:C(S):C(:C:C:1S)C1:C:C(S):C(:C:C:1S)C(:O):O___O:C(:O)C1:C:C(S):C(:C:C:1S)C1:C:C(S):C(:C:C:1S)C1:N:C(:N:C(:N:1)C1:C:C(S):C(:C:C:1S)C1:C:C(S):C(:C:C:1S)C(:O):O)C1:C:C(S):C(:C:C:1S)C1:C:C(S):C(:C:C:1S)C(:O):O,1
SR_boe_v1-3c_pyrrole_Ch_v2-3c_Cu_imadazoline_Ch_1B_2CN_Ch_ntn_edge_1x1x1,0.07921,0.9065,0.236339,4912.16,1160.93,29.2473,18.66001,24266.19405,,,,282,,24,24,24,C26Cu2H10N9,0.044444444,3,3c_Cu_imadazoline_Ch,90,N#CC1:C:C(:C(C#N):C:C:1C1:C:N:N:C:1)C1:C:C:C(C2:C:C(C#N):C(:C:C:2C#N)C2:C:N:N:C:2):N:1N1:C(:C:C:C:1C1:C:C(C#N):C(:C:C:1C#N)C1:C:N:N:C:1)C1:C:C(C#N):C(:C:C:1C#N)C1:C:N:N:C:1,1
SR_bon_v1-8c_Co_1_Ch_v2-8c_Co_1_Ch_1B_2NO2_Ch_1x1x1,0.18328,0.60896,1.10704,886.227,981.087,19.90919,4.82484,114137.4853,,,,5100,,1200,1200,960,C32Co4H8N8O33,0.049382716,8,8c_Co_1_Ch,20,O:C(:O)C1:C:C(:C(:C:C:1N(:O):O)C(:O):O)N(:O):O,1
SR_brk_v1-3c_B_Ch_v2-3c_B_Ch_v3-6c_CdZn_1_Ch_1B_4F_Ch_ntn_edge_1x1x2,0.1367,0.70258,1.00079,2256.11,2257.89,7.60869,5.02508,33904.24865,,,,1136,,256,256,192,C36Cd3F12H6O13Zn1,0.059701493,6,6c_CdZn_1_Ch,"48,18",O:C(:O)C1:C(F):C(F):C(C2:C:C(:C:C(:C:2)C2:C(F):C(F):C(C(:O):O):C(F):C:2F)C2:C(F):C(F):C(C(:O):O):C(F):C:2F):C(F):C:1F___O:C(:O)C1:C:C(:C:C(:C:1)C(:O):O)C(:O):O,1
SR_brk_v1-3c_B_Ch_v2-3c_triazine_Ch_v3-6c_CdZn_1_Ch_1DoU_Ch_1x1x1,0.10165,0.83244,0.5594,3520.27,1969.24,12.87491,10.90251,23583.29663,,,,496,,128,128,96,C27Cd3H15N3O13Zn1,0.068965517,6,6c_CdZn_1_Ch,"30,27",O:C(:O)C=CC1:C:C(C=CC(:O):O):C:C(C=CC(:O):O):C:1___O:C(:O)C=CC1:N:C(C=CC(:O):O):N:C(C=CC(:O):O):N:1,1
SR_bpi_v1-3c_B_Ch_v2-3c_Cu_imadazoline_Ch_ntn_edge_2x1x1,2.04812,0.53926,1.42083,669.524,951.281,7.67714,7.38484,8674.942446,,,,528,,96,96,96,C5Cu1H3N2,0.1,3,3c_Cu_imadazoline_Ch,"46,14",C1:N:N:C:C:1C1:C:C(:C:C(:C:1)C1:C:C(:C:C(:C:1)C1:C:N:N:C:1)C1:C:N:N:C:1)C1:C:N:N:C:1___C1:N:N:C:C:1C1:C:N:N:C:1,1
SR_bpf_v1-3c_Cu_imadazoline_Ch_v2-3c_Cu_imadazoline_Ch_ntn_edge_1B_2OH_Ch_2x1x1,0.05854,0.95044,0.154472,5843,902.578,26.00335,23.59481,86522.40889,,,,576,,96,96,96,C15Cu3H10N6O2,0.090909091,3,3c_Cu_imadazoline_Ch,"14,26",C1:N:N:C:C:1C1:C:N:N:C:1___OC1:C:C(C2:C:N:N:C:2):C(O):C:C:1C1:C:N:N:C:1,1
SR_bpt_v1-3c_pyrrole_Ch_v2-3c_Cu_imadazoline_Ch_1B_2CN_Ch_1x1x1,0.05206,0.94686,0.135517,6097.89,826.368,31.9673,26.63315,69380.10165,,,,436,,48,48,48,C58Cu6H23N22,0.058252427,3,3c_Cu_imadazoline_Ch,"102,26",N#CC1:C:C(:C(C#N):C:C:1C1:C:N:N:C:1)C1:C:C:C(C2:C:C(C#N):C(:C:C:2C#N)C2:C:C:C(C3:C:C(C#N):C(:C:C:3C#N)C3:C:N:N:C:3):N:2C2:C:C(C#N):C(:C:C:2C#N)C2:C:N:N:C:2):N:1C1:C:C(C#N):C(:C:C:1C#N)C1:C:N:N:C:1___N#CC1:C:C(C2:C:N:N:C:2):C(C#N):C:C:1C1:C:N:N:C:1,1
SR_bpl_v1-3c_B_Ch_v2-3c_Cu_imadazoline_Ch_2B_2NH2_Ch_1x1x1,0.04021,0.95578,0.1017,7207.23,732.976,31.96188,28.24382,287549.5495,,,,1872,,96,96,96,C17Cu1H15N6,0.026315789,3,3c_Cu_imadazoline_Ch,"288,42",NC1:C:C(:C(N):C:C:1C1:C:N:N:C:1)C1:C:C(N):C(:C:C:1N)C1:C:C2:C:C(:C:1)C1:C:C(N):C(:C:C:1N)C1:C:C(N):C(:C:C:1N)C1:C:C(:C:C(:C:1)C1:C:C(N):C(:C:C:1N)C1:C:C(N):C(:C:C:1N)C1:C:C(:C:C(:C:1)C1:C:C(N):C(:C:C:1N)C1:C:C(N):C(:C:C:1N)C1:C:C(:C:C(:C:1)C1:C:C(N):C(:C:C:1N)C1:C:C(N):C2:C:C:1N)C1:C:C(N):C(:C:C:1N)C1:C:C(N):C(:C:C:1N)C1:C:N:N:C:1)C1:C:C(N):C(:C:C:1N)C1:C:C(N):C(:C:C:1N)C1:C:N:N:C:1)C1:C:C(N):C(:C:C:1N)C1:C:C(N):C(:C:C:1N)C1:C:N:N:C:1___NC1:C:C(:C(N):C:C:1C1:C:N:N:C:1)C1:C:C(N):C(:C:C:1N)C1:C:N:N:C:1,1