name,k,VF,density,ASA_grav,ASA_vol,LPD,PLD,volume,,,,N_atoms,,N_metal_containing_bonds,N_metal_nonmetal_bonds,N_metal_linker_bonds,formula,metal_nonmetal_ratio,metal_node_connectivity,metal_node_name,N_atoms_per_linker,linker_SMILES,N_ccs
SR_fsa_v1-4c_bicyclooctane_Ch_v2-6c_Fe_1_Ch_1B_2CF3_Ch_ntn_edge_2x2x2,0.2377,0.59818,1.02651,1257.05,1290.38,8.03466,4.21509,69317.34651,,,,3040,,240,240,192,C102F36Fe3H36O13,0.016042781,6,6c_Fe_1_Ch,372,O:C(:O)C1:C:C(:C(:C:C:1C(F)(F)F)C12C=C3C4=CC5(C=C6C7=CC8(C=C9C%10=CC%11(C=C%12C(=C1)C3C(=C2)C1=CC2(C=C3C%13=CC%14(C=C(C(=C5)C46)C%13C(=C%14)C4=CC5(C=C6C%13=CC%14(C=C(C(=C2)C13)C%13C(=C%14)C1=CC2(C=C3C%13=CC%14(C=C(C(=C%11)C%12%10)C%13C(=C%14)C%10=CC%11(C=C(C(=C8)C79)C%10C(=C%11)C7=CC8(C=C(C(=C5)C46)C7C(=C8)C(=C2)C31)C1:C:C(:C(:C:C:1C(F)(F)F)C(:O):O)C(F)(F)F)C1:C:C(:C(:C:C:1C(F)(F)F)C(:O):O)C(F)(F)F)C1:C:C(:C(:C:C:1C(F)(F)F)C(:O):O)C(F)(F)F)C1:C:C(:C(:C:C:1C(F)(F)F)C(:O):O)C(F)(F)F)C1:C:C(:C(:C:C:1C(F)(F)F)C(:O):O)C(F)(F)F)C1:C:C(:C(:C:C:1C(F)(F)F)C(:O):O)C(F)(F)F)C1:C:C(:C(:C:C:1C(F)(F)F)C(:O):O)C(F)(F)F)C1:C:C(:C(:C:C:1C(F)(F)F)C(:O):O)C(F)(F)F)C1:C:C(:C(:C:C:1C(F)(F)F)C(:O):O)C(F)(F)F)C1:C:C(:C(:C:C:1C(F)(F)F)C(:O):O)C(F)(F)F)C1:C:C(:C(:C:C:1C(F)(F)F)C(:O):O)C(F)(F)F)C(F)(F)F,1
SR_fsa_v1-4c_bicyclooctane_Ch_v2-6c_Al_1_Ch_ntn_edge_1B_2Br_Ch_2x2x2,0.2747,0.55634,1.36498,467.805,638.543,8.12676,5.79041,69724.36469,,,,2944,,240,240,192,Al3Br18C108H42O13,0.016574586,6,6c_Al_1_Ch,360,O:C(:O)C1=CC23C=C4C5:C:C(Br):C(:C:C:5Br)C5=CC67C=C(C(:O):O)C5C(=C6)C5:C:C(Br):C(:C:C:5Br)C5=CC68C=C(C(:O):O)C5C(=C6)C5:C:C(Br):C(:C:C:5Br)C5=CC6(C=C(C(:O):O)C5C(=C6)C5:C:C(Br):C2:C:C:5Br)C2:C:C(Br):C(:C:C:2Br)C25C=C(C(:O):O)C6C(=C2)C2:C:C(Br):C(:C:C:2Br)C2=CC9%10C=C(C(:O):O)C2C(=C9)C2:C:C(Br):C(:C:C:2Br)C2=CC9(C=C(C(:O):O)C2C(=C9)C2:C:C(Br):C(:C:C:2Br)C2=CC9%11C=C(C(:O):O)C2C(=C9)C2:C:C(Br):C(:C:C:2Br)C2=CC9(C=C(C(:O):O)C2C(=C9)C2:C:C(Br):C%10:C:C:2Br)C2:C:C(Br):C(:C:C:2Br)C29C=C(C(:O):O)C(C(=C2)C2:C:C(Br):C(:C:C:2Br)C(=C3)C14)C(=C9)C1:C:C(Br):C(:C:C:1Br)C1=CC2(C=C(C(:O):O)C1C(=C2)C1:C:C(Br):C7:C:C:1Br)C1:C:C(Br):C%11:C:C:1Br)C1:C:C(Br):C(:C:C:1Br)C1=CC2(C=C(C(:O):O)C1C(=C2)C1:C:C(Br):C(:C:C:1Br)C6=C5)C1:C:C(Br):C8:C:C:1Br,1
SR_flu_v1-4c_1anC_Ch_v2-8c_Co_1_Ch_1B_4Br_Ch_1x1x2,0.19919,0.4492,2.42319,0,0,8.55846,2.13811,20624.26946,,,,888,,160,160,128,Br32C58Co4O17,0.037383178,8,8c_Co_1_Ch,53,O:C(:O)C1:C(Br):C(Br):C(:C(Br):C:1Br)C(C1:C(Br):C(Br):C(C(:O):O):C(Br):C:1Br)(C1:C(Br):C(Br):C(C(:O):O):C(Br):C:1Br)C1:C(Br):C(Br):C(C(:O):O):C(Br):C:1Br,1
SR_kle_v1-3c_triazine_Ch_v2-12c_Zr_1_Ch_v3-3c_triazine_Ch_1B_2CH3_Ch_ntn_edge_1x1x1,0.17206,0.68034,0.740505,2513.72,1861.42,14.10551,4.75547,55287.17246,,,,2448,,384,384,192,C69H56N9O16Zr3,0.02,12,12c_Zr_1_Ch,"88,104",CC1:C:C(C2:N:C(:N:C(:N:2)C2:C:C(C):C(:C:C:2C)C(:O):O)C2:N:C(:N:C(:N:2)C2:C:C(C):C(:C:C:2C)C(:O):O)C2:C:C(C):C(:C:C:2C)C(:O):O):C(C):C:C:1C(:O):O___CC1:C:C(C2:N:C(:N:C(:N:2)C2:C:C(C):C(:C:C:2C)C2:N:C(:N:C(:N:2)C2:C:C(C):C(:C:C:2C)C(:O):O)C2:C:C(C):C(:C:C:2C)C(:O):O)C2:C:C(C):C(:C:C:2C)C(:O):O):C(C):C:C:1C(:O):O,1
SR_koh_v1-6c_Zn_1_Ch_v2-6c_Zn_1_Ch_v3-3c_B_Ch_1B_2DoU_Ch_1x1x1,0.06844,0.93352,0.1577,6647.89,1048.37,39.56546,18.6058,262615.8585,,,,2404,,320,320,240,C306H210O65Zn20,0.034423408,6,6c_Zn_1_Ch,"24,72",O:C(:O)C=CC1:C:C:C(C=CC(:O):O):C:C:1___O:C(:O)C=CC1:C:C:C(C=CC2:C:C(C=CC3:C:C:C(C=CC(:O):O):C:C:3):C:C(C=CC3:C:C:C(C=CC(:O):O):C:C:3):C:2):C:C:1,1
SR_frl_v1-4c_B_Ch_v2-4c_In_1_Ch_ntn_edge_1B_4Br_Ch_1x2x2,0.12749,0.69736,1.24648,1457.84,1817.18,11.89594,7.76884,38336.11044,,,,960,,256,256,256,Br12C29H1In2O16,0.034482759,4,4c_In_1_Ch,"16,20",O:C(:O)C1:C(Br):C(Br):C(C(:O):O):C(Br):C:1Br___O:C(:O)C1:C:C(C(:O):O):C(:C:C:1C(:O):O)C(:O):O,1
SR_itv_v1-4c_1anC_Ch_v2-4c_Cd_1_Ch_1B_2CH3_Ch_ntn_edge_1x1x3,0.18686,0.63524,0.906568,1371.13,1243.02,6.19845,4.5007,22116.9866,,,,1092,,192,192,192,C41Cd2H32O16,0.02247191,4,4c_Cd_1_Ch,"77,6",CC1:C:C(:C(C):C:C:1C(:O):O)C(C1:C:C(C):C(:C:C:1C)C(:O):O)(C1:C:C(C):C(:C:C:1C)C(:O):O)C1:C:C(C):C(:C:C:1C)C(:O):O___O:C(:O)C(:O):O,1
SR_fvb_v1-4c_bicyclooctane_Ch_v2-4c_In_1_Ch_ntn_edge_1B_2thiophene_Ch_1x1x1,0.07837,0.89024,0.284136,4779.24,1357.96,24.70505,18.20045,78714.80297,,,,876,,96,96,96,C42H16In1O8S6,0.013888889,4,4c_In_1_Ch,"22,468",O:C(:O)C1:C:C2:C:C3:S:C(:C:C:3:C:C:2:S:1)C(:O):O___O:C(:O)C1=CC23C=C4C5:C:C6:C:C7:S:C(:C:C:7:C:C:6:S:5)C5=CC67C=C(C(:O):O)C5C(=C6)C5:C:C6:C:C8:S:C(:C:C:8:C:C:6:S:5)C5=CC68C=C(C(:O):O)C5C(=C6)C5:C:C6:C:C9:S:C(:C:C:9:C:C:6:S:5)C5=CC6(C=C(C(:O):O)C5C(=C6)C5:C:C6:C:C9:S:C(:C:C:9:C:C:6:S:5)C(=C2)C14)C1:C:C2:C:C4:S:C(:C:C:4:C:C:2:S:1)C12C=C(C(:O):O)C4C(=C1)C1:C:C5:C:C6:S:C(:C:C:6:C:C:5:S:1)C1=CC56C=C(C(:O):O)C1C(=C5)C1:C:C5:C:C9:S:C(:C:C:9:C:C:5:S:1)C1=CC5(C=C(C(:O):O)C1C(=C5)C1:C:C5:C:C9:S:C(:C:C:9:C:C:5:S:1)C1=CC5(C=C(C(:O):O)C1C(=C5)C1:C:C5:C:C9:S:C(:C:C:9:C:C:5:S:1)C4=C2)C1:C:C2:C:C4:S:C(:C:C:4:C:C:2:S:1)C12C=C(C(:O):O)C4C(=C1)C1:C:C5:C:C9:S:C(:C:C:9:C:C:5:S:1)C1=CC5(C=C(C(:O):O)C1C(=C5)C1:C:C5:C:C9:S:C(:C:C:9:C:C:5:S:1)C1=CC5(C=C(C(:O):O)C1C(=C5)C1:C:C5:C:C9:S:C(:C:C:9:C:C:5:S:1)C1=CC5(C=C(C(:O):O)C1C(=C5)C1:C:C5:C:C9:S:C(:C:C:9:C:C:5:S:1)C4=C2)C1:C:C2:C:C4:S:C8:C:C:4:C:C:2:S:1)C1:C:C2:C:C4:S:C6:C:C:4:C:C:2:S:1)C1:C:C2:C:C4:S:C3:C:C:4:C:C:2:S:1)C1:C:C2:C:C3:S:C7:C:C:3:C:C:2:S:1,1
SR_htp_v1-6c_B_Ch_v2-6c_Al_1_Ch_2B_4H_Ch_2x1x1,0.36547,0.8185,0.372835,4643.5,1731.26,17.68677,16.68179,47967.40555,,,,1184,,120,120,96,Al3C84H48O13,0.020689655,6,6c_Al_1_Ch,144,O:C(:O)C1:C:C:C(:C:C:1)C1:C:C:C(:C:C:1)C1:C(C2:C:C:C(:C:C:2)C2:C:C:C(:C:C:2)C(:O):O):C(C2:C:C:C(:C:C:2)C2:C:C:C(:C:C:2)C(:O):O):C(C2:C:C:C(:C:C:2)C2:C:C:C(:C:C:2)C(:O):O):C(C2:C:C:C(:C:C:2)C2:C:C:C(:C:C:2)C(:O):O):C:1C1:C:C:C(:C:C:1)C1:C:C:C(:C:C:1)C(:O):O,1
SR_fuj_v1-4c_In_1_Ch_v2-4c_In_1_Ch_2B_fused_Ch_1x1x1,0.05437,0.9374,0.164341,5573.83,916.008,51.95655,33.70343,395161.2934,,,,3240,,576,576,576,C24H12In1O8,0.022727273,4,4c_In_1_Ch,22,O:C(:O)C1:C:C:C2:C:C(:C:C:C:2:C:1)C(:O):O,1
SR_flue_v1-6c_Al_1_Ch_1B_2NO2_Ch_1x1x1,0.34032,0.72526,0.693383,2207.09,1530.36,20.53021,5.82429,65850.43278,,,,2048,,480,480,384,Al3C24H6N6O25,0.049180328,6,6c_Al_1_Ch,20,O:C(:O)C1:C:C(:C(:C:C:1N(:O):O)C(:O):O)N(:O):O,1
SR_hwx_v1-6c_Fe_1_Ch_v2-3c_triazine_Ch_2B_fused_Ch_1x1x2,0.21097,0.875,0.288382,5590.67,1612.25,19.81398,15.13709,62769.82612,,,,1040,,120,120,96,C72Fe3H36N6O13,0.023622047,6,6c_Fe_1_Ch,63,O:C(:O)C1:C:C:C2:C:C(:C:C:C:2:C:1)C1:N:C(:N:C(:N:1)C1:C:C:C2:C:C(:C:C:C:2:C:1)C(:O):O)C1:C:C:C2:C:C(:C:C:C:2:C:1)C(:O):O,1
SR_kez_v1-6c_bicyclooctane_Ch_v2-3c_Cu_imadazoline_Ch_v3-6c_B_Ch_ntn_edge_2B_2CH3_Ch_1x1x1,0.13823,0.80188,0.458783,4501.36,2065.15,13.90364,8.78438,42747.31116,,,,1108,,72,72,72,C134Cu9H116N18,0.03358209,3,3c_Cu_imadazoline_Ch,"48,244",C1:N:N:C:C:1C1:C(C2:C:N:N:C:2):C(C2:C:N:N:C:2):C(C2:C:N:N:C:2):C(C2:C:N:N:C:2):C:1C1:C:N:N:C:1___CC1:C:C(:C(C):C:C:1C1=C(C2:C:C(C):C(:C:C:2C)C2:C:C(C):C(:C:C:2C)C2:C:N:N:C:2)C2C(=C(C3:C:C(C):C(:C:C:3C)C3:C:C(C):C(:C:C:3C)C3:C:N:N:C:3)C1C(=C2C1:C:C(C):C(:C:C:1C)C1:C:C(C):C(:C:C:1C)C1:C:N:N:C:1)C1:C:C(C):C(:C:C:1C)C1:C:C(C):C(:C:C:1C)C1:C:N:N:C:1)C1:C:C(C):C(:C:C:1C)C1:C:C(C):C(:C:C:1C)C1:C:N:N:C:1)C1:C:C(C):C(:C:C:1C)C1:C:N:N:C:1,1
SR_kkm_v1-6c_Zn_1_Ch_v2-3c_B_Ch_1B_2F_Ch_ntn_edge_2x2x1,0.18015,0.73958,0.841599,2601.17,2189.14,9.67813,6.18655,49558.33199,,,,1504,,512,512,384,C21F3H6O13Zn4,0.093023256,6,6c_Zn_1_Ch,"18,16",O:C(:O)C1:C:C(:C:C(:C:1)C(:O):O)C(:O):O___O:C(:O)C1:C:C(F):C(:C:C:1F)C(:O):O,1
SR_lcy_v1-6c_Fe_1_Ch_1B_2thiophene_Ch_1x1x1,0.13991,0.86206,0.367571,4343.79,1596.65,17.6388,14.51252,18294.75955,,,,280,,60,60,48,C36Fe3H12O13S6,0.044776119,6,6c_Fe_1_Ch,22,O:C(:O)C1:C:C2:C:C3:S:C(:C:C:3:C:C:2:S:1)C(:O):O,1
SR_jec_v1-3c_B_Ch_v2-3c_B_Ch_v3-3c_B_Ch_v4-4c_Cd_1_Ch_ntn_edge_1B_2CH3_Ch_2x1x5,0.33441,0.74726,0.63987,3158.26,2020.88,9.21421,7.96383,58743.97074,,,,1920,,320,320,320,C26Cd1H13O8,0.021276596,4,4c_Cd_1_Ch,"410,6",CC1:C:C2C3:C:C4:C:C(:C:3)C3:C:C(:C:C(:C:3)C3:C:C5:C:C(:C:3)C3:C:C(C):C(:C:C:3C)C3:C:C6:C:C(:C:3)C3:C:C(:C:C(:C:3)C3:C:C7:C:C(:C:3)C3:C:C(C):C(:C:C:3C)C3:C:C(:C:C(:C:3)C3:C:C(:C:C(:C:3)C3:C:C8:C:C(:C:3)C3:C:C(C):C(:C:C:3C)C3:C:C(:C:C(:C:3)C3:C:C(:C:C7:C:3)C3:C:C(:C:C(:C:3)C(:O):O)C(:O):O)C3:C:C(:C:C(:C:3)C3:C:C(:C:C(:C:3)C3:C:C(C):C(:C:C:3C)C3:C:C(:C:C(:C:3)C3:C:C(:C:C8:C:3)C3:C:C(:C:C(:C:3)C(:O):O)C(:O):O)C3:C:C(:C:C4:C:3)C3:C:C(:C:C(:C:3)C(:O):O)C(:O):O)C3:C:C(:C:C(:C:3)C3:C:C(:C:C(:C:3)C:1:C:C:2C)C1:C:C(:C:C6:C:1)C1:C:C(:C:C(:C:1)C(:O):O)C(:O):O)C1:C:C(:C:C(:C:1)C(:O):O)C(:O):O)C1:C:C(:C:C(:C:1)C(:O):O)C(:O):O)C1:C:C(:C:C(:C:1)C(:O):O)C(:O):O)C1:C:C(:C:C5:C:1)C1:C:C(:C:C(:C:1)C(:O):O)C(:O):O)C1:C:C(:C:C(:C:1)C(:O):O)C(:O):O)C1:C:C(:C:C(:C:1)C(:O):O)C(:O):O___O:C(:O)C(:O):O,1
SR_idp_v1-4c_porphyrin_Ch_v2-3c_triazine_Ch_v3-6c_Zn_1_Ch_1B_4F_Ch_ntn_edge_1x1x1,0.11752,0.79974,0.572933,3546.77,2032.06,18.43468,7.89944,43912.3222,,,,1012,,128,128,96,C132F48H15N24O26Zn8,0.032653061,6,6c_Zn_1_Ch,162,O:C(:O)C1:C(F):C(F):C(C2:N:C(:N:C(:N:2)C2:C3:C:C:C(:N:3):C(C3:N:C(:N:C(:N:3)C3:C(F):C(F):C(C(:O):O):C(F):C:3F)C3:C(F):C(F):C(C(:O):O):C(F):C:3F):C3:C:C:C(:[NH]:3):C(C3:N:C(:N:C(:N:3)C3:C(F):C(F):C(C(:O):O):C(F):C:3F)C3:C(F):C(F):C(C(:O):O):C(F):C:3F):C3:C:C:C(:N:3):C(C3:N:C(:N:C(:N:3)C3:C(F):C(F):C(C(:O):O):C(F):C:3F)C3:C(F):C(F):C(C(:O):O):C(F):C:3F):C3:C:C:C:2:[NH]:3)C2:C(F):C(F):C(C(:O):O):C(F):C:2F):C(F):C:1F,1
SR_kea_v1-4c_V_1_Ch_v2-4c_bicyclooctane_Ch_2B_2OH_Ch_1x1x1,0.10362,0.87994,0.26822,5707.36,1530.83,18.54156,16.17075,43967.49973,,,,728,,36,32,32,C46H28O16V1,0.011111111,4,4c_V_1_Ch,360,O:C(:O)C1:C:C(O):C(:C:C:1O)C1:C:C(O):C(:C:C:1O)C1=CC2(C=C3C4:C:C(O):C(:C:C:4O)C4:C:C(O):C(:C:C:4O)C4=CC5(C=C(C6:C:C(O):C(:C:C:6O)C6:C:C(O):C(:C:C:6O)C6=CC7(C=C(C8:C:C(O):C(:C:C:8O)C8:C:C(O):C(:C:C:8O)C8=CC9(C=C(C%10:C:C(O):C(:C:C:%10O)C%10:C:C(O):C(:C:C:%10O)C(=C2)C31)C8C(=C9)C1:C:C(O):C(:C:C:1O)C1:C:C(O):C(:C:C:1O)C(:O):O)C1:C:C(O):C(:C:C:1O)C1:C:C(O):C(:C:C:1O)C(:O):O)C6C(=C7)C1:C:C(O):C(:C:C:1O)C1:C:C(O):C(:C:C:1O)C(:O):O)C1:C:C(O):C(:C:C:1O)C1:C:C(O):C(:C:C:1O)C(:O):O)C4C(=C5)C1:C:C(O):C(:C:C:1O)C1:C:C(O):C(:C:C:1O)C(:O):O)C1:C:C(O):C(:C:C:1O)C1:C:C(O):C(:C:C:1O)C(:O):O)C1:C:C(O):C(:C:C:1O)C1:C:C(O):C(:C:C:1O)C(:O):O,1
SR_geo_v1-3c_Cu_imadazoline_Ch_v2-3c_Cu_imadazoline_Ch_v3-4c_Cu_1_Ch_3B_fused_8H_Ch_ntn_edge_1x1x1,0.04007,0.96804,0.0818707,6370.37,521.547,63.72755,23.58348,307513.8099,,,,1308,,162,156,156,C115Cu11H66N18O8,0.053140097,"3,4","3c_Cu_imadazoline_Ch,4c_Cu_1_Ch","36,14,32",C1:C:C2:C(:C:C:C3:C:C(:C:C:C:3:2)C2:C:N:N:C:2):C:C:1C1:C:N:N:C:1___C1:N:N:C:C:1C1:C:N:N:C:1___O:C(:O)C1:C:C:C2:C(:C:C:C3:C:C(:C:C:C:3:2)C2:C:N:N:C:2):C:1,1
SR_lcx_v1-8c_Co_1_Ch_1B_2F_Ch_2x2x2,0.22877,0.58608,1.20669,467.417,564.025,11.56114,3.69675,69513.59797,,,,3312,,960,960,768,C32Co4F8H8O17,0.061538462,8,8c_Co_1_Ch,16,O:C(:O)C1:C:C(F):C(:C:C:1F)C(:O):O,1
SR_fsm_v1-6c_Zn_1_Ch_v2-4c_bicyclooctane_Ch_v3-4c_bicyclooctane_Ch_2B_2SH_Ch_ntn_edge_1x2x2,0.0755,0.81236,0.457228,4280.9,1957.35,15.53744,8.37922,140894.1067,,,,3056,,256,256,192,C94H56O13S24Zn4,0.021390374,6,6c_Zn_1_Ch,186,O:C(:O)C1:C:C(S):C(:C:C:1S)C1:C:C(S):C(:C:C:1S)C1=CC2(C=C(C3=CC4(C=C(C5:C:C(S):C(:C:C:5S)C5:C:C(S):C(:C:C:5S)C(:O):O)C3C(=C4)C3:C:C(S):C(:C:C:3S)C3:C:C(S):C(:C:C:3S)C(:O):O)C3:C:C(S):C(:C:C:3S)C3:C:C(S):C(:C:C:3S)C(:O):O)C1C(=C2)C1:C:C(S):C(:C:C:1S)C1:C:C(S):C(:C:C:1S)C(:O):O)C1:C:C(S):C(:C:C:1S)C1:C:C(S):C(:C:C:1S)C(:O):O,1
SR_fue_v1-4c_Cd_1_Ch_v2-4c_Cd_1_Ch_1B_2OH_Ch_ntn_edge_1x1x1,0.03418,0.92362,0.219336,4592.28,1007.25,57.79141,31.12086,255450.2133,,,,2376,,576,576,576,C42Cd3H20O34,0.03125,4,4c_Cd_1_Ch,"6,18",O:C(:O)C(:O):O___O:C(:O)C1:C:C(O):C(:C:C:1O)C(:O):O,1
SR_fun_v1-4c_1anC_Ch_v2-4c_In_1_Ch_1B_2NO2_Ch_ntn_edge_1x1x1,0.12701,0.65492,1.1618,1114.13,1294.4,13.69125,4.63098,17379.05139,,,,656,,256,256,256,C15H2In2N2O20,0.051282051,4,4c_In_1_Ch,"6,168",O:C(:O)C(:O):O___O:C(:O)C1(C(:O):O)C2:C:C(:C(:C:C:2N(:O):O)C(C(:O):O)(C(:O):O)C2:C:C(:C(:C:C:2N(:O):O)C(C(:O):O)(C(:O):O)C2:C:C(:C(:C:C:2N(:O):O)C(C(:O):O)(C(:O):O)C2:C:C(:C(:C:C:2N(:O):O)C(C(:O):O)(C(:O):O)C2:C:C(:C(:C:C:2N(:O):O)C(C(:O):O)(C(:O):O)C2:C:C(:C(:C:C:2N(:O):O)C(C(:O):O)(C(:O):O)C2:C:C(:C(:C:C:2N(:O):O)C(C(:O):O)(C(:O):O)C2:C:C(:C1:C:C:2N(:O):O)N(:O):O)N(:O):O)N(:O):O)N(:O):O)N(:O):O)N(:O):O)N(:O):O)N(:O):O,1
SR_fjh_v1-3c_B_Ch_v2-4c_V_1_Ch_v3-4c_V_1_Ch_1B_2NO2_Ch_ntn_edge_1x1x1,0.38582,0.74686,0.647202,3519.72,2277.97,9.42593,6.60098,25276.16108,,,,760,,108,96,96,C42H14N8O28V3,0.032608696,4,4c_V_1_Ch,46,O:C(:O)C1:C:C(:C:C(:C:1)C1:C:C(:C(:C:C:1N(:O):O)C(:O):O)N(:O):O)C1:C:C(:C(:C:C:1N(:O):O)C(:O):O)N(:O):O,1
SR_lcy_v1-6c_Fe_1_Ch_2B_2F_Ch_1x1x1,0.2289,0.8563,0.381911,3941.27,1505.21,16.22542,14.75397,19479.9584,,,,328,,60,60,48,C42F12Fe3H12O13,0.037974684,6,6c_Fe_1_Ch,26,O:C(:O)C1:C:C(F):C(:C:C:1F)C1:C:C(F):C(:C:C:1F)C(:O):O,1
SR_lcx_v1-8c_Co_1_Ch_2B_fused_Ch_1x1x1,0.2565,0.68196,0.811398,2023.07,1641.51,14.93131,5.64797,13614.34968,,,,558,,120,120,96,C48Co4H24O17,0.04494382,8,8c_Co_1_Ch,22,O:C(:O)C1:C:C:C2:C:C(:C:C:C:2:C:1)C(:O):O,1
SR_ftp_v1-4c_In_1_Ch_v2-4c_bicyclooctane_Ch_1TrU_Ch_1DoU_Ch_1B_4H_Ch_1x1x1,0.07745,0.86986,0.301769,4713.07,1422.26,24.70855,11.67897,34929.85787,,,,600,,64,64,64,C44H22In1O8,0.013513514,4,4c_In_1_Ch,"128,10",O:C(:O)C#CC12C=C3C4:C:C:C(:C:C:4)C4=CC5(C#CC(:O):O)C=C6C7:C:C:C(:C:C:7)C7=CC8(C#CC(:O):O)C=C9C%10:C:C:C(:C:C:%10)C(=C1)C3C(=C2)C1:C:C:C(:C:C:1)C1=CC2(C#CC(:O):O)C=C(C3:C:C:C(:C:C:3)C(=C5)C46)C1C(=C2)C1:C:C:C(:C:C:1)C(=C8)C97___O:C(:O)C=CC(:O):O,1
SR_jph_v1-3c_Cu_imadazoline_Ch_v2-4c_porphyrin_Ch_1DoU_Ch_1TrU_Ch_1x1x1,0.0819,0.9571,0.120417,6033.19,726.496,37.64712,29.93827,113736.1967,,,,616,,96,96,96,C36Cu6H21N14,0.084507042,3,3c_Cu_imadazoline_Ch,"16,78",C(#CC1:C:N:N:C:1)C1:C:N:N:C:1___C(=CC1:C2:C:C:C(:N:2):C(C=CC2:C:N:N:C:2):C2:C:C:C(:[NH]:2):C(C=CC2:C:N:N:C:2):C2:C:C:C(:N:2):C(C=CC2:C:N:N:C:2):C2:C:C:C:1:[NH]:2)C1:C:N:N:C:1,1
SR_fsk_v1-6c_Zr_1_Ch_v2-4c_bicyclooctane_Ch_v3-4c_1anC_Ch_1B_2OH_Ch_1x2x1,0.1244,0.71458,0.76778,2574.67,1976.78,10.9642,6.57076,34993.00297,,,,1304,,384,384,96,C57H54O46Zr6,0.038216561,6,6c_Zr_1_Ch,115,O:C(:O)C1:C:C(O):C(:C:C:1O)C1=CC2(C=C(C3:C:C(O):C(:C:C:3O)C(:O):O)C1C(=C2)C1:C:C(O):C(:C:C:1O)C(C1:C:C(O):C(:C:C:1O)C(:O):O)(C1:C:C(O):C(:C:C:1O)C(:O):O)C1:C:C(O):C(:C:C:1O)C(:O):O)C1:C:C(O):C(:C:C:1O)C(:O):O,1
SR_kxe_v1-3c_B_Ch_v2-12c_Zr_1_Ch_1B_4CN_Ch_1x1x1,0.15047,0.6504,0.823436,1909.78,1572.58,11.04767,4.7666,60279.136,,,,1908,,288,288,144,C99H11N30O16Zr3,0.019230769,12,12c_Zr_1_Ch,100,N#CC1:C(C#N):C(C2:C:C(:C:C(:C:2)C2:C(C#N):C(C#N):C(C3:C:C(:C:C(:C:3)C3:C(C#N):C(C#N):C(C(:O):O):C(C#N):C:3C#N)C3:C(C#N):C(C#N):C(C(:O):O):C(C#N):C:3C#N):C(C#N):C:2C#N)C2:C(C#N):C(C#N):C(C(:O):O):C(C#N):C:2C#N):C(C#N):C(C#N):C:1C(:O):O,1
SR_kez_v1-6c_bicyclooctane_Ch_v2-3c_triazine_Ch_v3-6c_Mg_1_Ch_2B_4Br_Ch_ntn_edge_1x1x1,0.20052,0.60296,1.60876,829.769,1334.9,8.35258,4.92131,25472.04348,,,,688,,60,60,24,Br48C95H5Mg3N9O12,0.017751479,6,6c_Mg_1_Ch,314,O:C(:O)C1:N:C2:N:C(:N:1)C1:C(Br):C(Br):C(:C(Br):C:1Br)C1:C(Br):C(Br):C(C3=C4C5:C(Br):C(Br):C(:C(Br):C:5Br)C5:C(Br):C(Br):C(C6:N:C(:N:C(:N:6)C6:C(Br):C(Br):C(:C(Br):C:6Br)C6:C(Br):C(Br):C(C7=C(C8:C(Br):C(Br):C(:C(Br):C:8Br)C8:C(Br):C(Br):C2:C(Br):C:8Br)C2C8=C9C%10:C(Br):C(Br):C(:C(Br):C:%10Br)C%10:C(Br):C(Br):C(C%11:N:C(:N:C(:N:%11)C%11:C(Br):C(Br):C(:C(Br):C:%11Br)C%11:C(Br):C(Br):C(C%12=C(C%13:C(Br):C(Br):C(:C(Br):C:%13Br)C%13:C(Br):C(Br):C(C%14:N:C(:N:C(:N:%14)C%14:C(Br):C(Br):C(:C(Br):C:%14Br)C%14:C(Br):C(Br):C8:C(Br):C:%14Br)C(:O):O):C(Br):C:%13Br)C3C3=C(C8:C(Br):C(Br):C(:C(Br):C:8Br)C8:C(Br):C(Br):C(C%13:N:C(:N:C(:N:%13)C%13:C(Br):C(Br):C(:C(Br):C:%13Br)C%13:C(Br):C(Br):C(C(=C2C2:C(Br):C(Br):C(:C(Br):C:2Br)C2:C(Br):C(Br):C(C%14:N:C(:N:C(:N:%14)C%14:C(Br):C(Br):C(:C(Br):C:%14Br)C%14:C(Br):C(Br):C3:C(Br):C:%14Br)C(:O):O):C(Br):C:2Br)C79):C(Br):C:%13Br)C(:O):O):C(Br):C:8Br)C4%12):C(Br):C:%11Br)C(:O):O):C(Br):C:%10Br):C(Br):C:6Br)C(:O):O):C(Br):C:5Br):C(Br):C:1Br,1
SR_kle_v1-3c_triazine_Ch_v2-12c_Zr_1_Ch_v3-3c_triazine_Ch_ntn_edge_2B_2F_Ch_1x1x1,0.23757,0.50134,1.44026,0,0,6.16149,3.12203,21660.16996,,,,1200,,384,384,192,C33F6H8N9O16Zr3,0.041666667,12,12c_Zr_1_Ch,44,O:C(:O)C1:N:C(:N:C(:N:1)C1:C:C(F):C(:C:C:1F)C1:C:C(F):C(:C:C:1F)C1:N:C(:N:C(:N:1)C(:O):O)C(:O):O)C(:O):O,1
SR_lcx_v1-8c_Mn_1_Ch_1B_4CN_Ch_2x2x2,0.4465,0.61762,0.951114,1370.68,1303.67,13.06146,4.07245,126051.1834,,,,4848,,960,960,768,C48Cl1Mn4N48,0.041237113,8,8c_Mn_1_Ch,24,N#CC1:C(C#N):C(C2:N:N:N:N:2):C(C#N):C(C#N):C:1C1:N:N:N:N:1,1
SR_iab_v1-3c_Cu_imadazoline_Ch_v2-4c_Cu_1_Ch_v3-4c_Cu_1_Ch_1TrU_Ch_1DoU_Ch_1x1x1,0.15136,0.91342,0.276728,5256.72,1454.68,19.84109,15.87996,66465.30471,,,,712,,204,192,192,C36Cu9H20N12O12,0.1125,"3,4","3c_Cu_imadazoline_Ch,4c_Cu_1_Ch","12,14",O:C(:O)C#CC1:C:N:N:C:1___O:C(:O)C=CC1:C:N:N:C:1,1
SR_ith_v1-4c_1anC_Ch_v2-12c_Zr_1_Ch_1B_2NO2_Ch_2x2x2,0.25626,0.41438,1.60158,0,0,5.30344,2.21151,53773.51636,,,,3600,,768,768,384,C87H28N24O80Zr6,0.02739726,12,12c_Zr_1_Ch,69,O:C(:O)C1:C:C(:C(:C:C:1N(:O):O)C(C1:C:C(:C(:C:C:1N(:O):O)C(:O):O)N(:O):O)(C1:C:C(:C(:C:C:1N(:O):O)C(:O):O)N(:O):O)C1:C:C(:C(:C:C:1N(:O):O)C(:O):O)N(:O):O)N(:O):O,1
SR_fve_v1-4c_1anC_Ch_v2-4c_In_1_Ch_1B_2CF3_Ch_ntn_edge_1x1x1,0.1874,0.60096,1.18475,1020.39,1208.9,13.93929,4.85738,18711.23984,,,,864,,128,128,128,C25F15H5In1O8,0.018867925,4,4c_In_1_Ch,,None,1
SR_hbm_v1-4c_bicyclooctane_Ch_v2-4c_Ni_1_Ch_ntn_edge_1B_2CH3_Ch_2x2x2,0.26011,0.64978,0.765365,1926.69,1474.62,11.57671,9.36321,63247.08529,,,,3264,,288,256,256,C26H20Ni1O4,0.02,4,4c_Ni_1_Ch,400,CC1:C:C(C(:O):O):C(C):C:C:1C1=CC2(C=C3C4=CC5(C=C(C6=CC7(C=C(C8=CC9(C=C(C%10=CC%11(C=C(C%12=CC%13(C=C(C%14=CC%15(C=C(C%16=CC%17(C=C(C(=C2)C31)C%16C(=C%17)C1:C:C(C):C(:C:C:1C)C(:O):O)C1:C:C(C):C(:C:C:1C)C(:O):O)C%14C(=C%15)C1:C:C(C):C(:C:C:1C)C(:O):O)C1:C:C(C):C(:C:C:1C)C(:O):O)C%12C(=C%13)C1:C:C(C):C(:C:C:1C)C(:O):O)C1:C:C(C):C(:C:C:1C)C(:O):O)C%10C(=C%11)C1:C:C(C):C(:C:C:1C)C(:O):O)C1:C:C(C):C(:C:C:1C)C(:O):O)C8C(=C9)C1:C:C(C):C(:C:C:1C)C(:O):O)C1:C:C(C):C(:C:C:1C)C(:O):O)C6C(=C7)C1:C:C(C):C(:C:C:1C)C(:O):O)C1:C:C(C):C(:C:C:1C)C(:O):O)C4C(=C5)C1:C:C(C):C(:C:C:1C)C(:O):O)C1:C:C(C):C(:C:C:1C)C(:O):O)C1:C:C(C):C(:C:C:1C)C(:O):O,1
SR_eyea_v1-4c_In_1_Ch_v2-4c_1anC_Ch_v3-4c_1anC_Ch_1TrU_Ch_1B_4H_Ch_1x1x1,0.12565,0.70568,0.777097,1504.91,1169.46,17.5015,10.55921,15943.09758,,,,468,,96,96,96,C24H6In1O8,0.026315789,4,4c_In_1_Ch,"8,156,126",O:C(:O)C#CC(:O):O___O:C(:O)C#CC1(C#CC(:O):O)C#CC(C#CC(:O):O)(C#CC(:O):O)C#CC(C#CC(:O):O)(C#CC(:O):O)C#CC(C#CC(:O):O)(C#CC(:O):O)C#CC(C#CC(:O):O)(C#CC(:O):O)C#CC(C#CC(:O):O)(C#CC(:O):O)C#CC(C#CC(:O):O)(C#CC(:O):O)C#CC(C#CC(:O):O)(C#CC(:O):O)C#CC(C#CC(:O):O)(C#CC(:O):O)C#CC(C#CC(:O):O)(C#CC(:O):O)C#CC(C#CC(:O):O)(C#CC(:O):O)C#CC(C#CC(:O):O)(C#CC(:O):O)C#C1___O:C(:O)C#CC12C3:C:C:C(:C:C:3)C3(C#CC(:O):O)C4:C:C:C(:C:C:4)C(C#CC(:O):O)(C4:C:C:C1:C:C:4)C1:C:C:C(:C:C:1)C1(C#CC(:O):O)C4:C:C:C(:C:C:4)C(C#CC(:O):O)(C4:C:C:C2:C:C:4)C2:C:C:C(:C:C:2)C(C#CC(:O):O)(C2:C:C:C3:C:C:2)C2:C:C:C1:C:C:2,1
SR_ins_v1-4c_Cd_1_Ch_v2-3c_triazine_Ch_1DoU_Ch_2x1x2,0.10421,0.8738,0.346704,5070.76,1758.05,15.74042,13.65211,35141.70983,,,,528,,128,128,128,C14Cd1H7N3O8,0.03125,4,4c_Cd_1_Ch,"10,27",O:C(:O)C=CC(:O):O___O:C(:O)C=CC1:N:C(C=CC(:O):O):N:C(C=CC(:O):O):N:1,1
SR_eth_v1-3c_Cu_imadazoline_Ch_v2-3c_pyrrole_Ch_2B_2Br_Ch_1x1x1,0.02091,0.96566,0.120186,4446.31,534.386,44.73614,41.22498,162855.7433,,,,580,,48,48,48,Br18C76Cu6H32N13,0.043165468,3,3c_Cu_imadazoline_Ch,"142,34",BrC1:C:C(:C(Br):C:C:1C1:C:N:N:C:1)C1:C:C(Br):C(:C:C:1Br)C1:C:C:C(C2:C:C(Br):C(:C:C:2Br)C2:C:C(Br):C(:C:C:2Br)C2:C:C:C(C3:C:C(Br):C(:C:C:3Br)C3:C:C(Br):C(:C:C:3Br)C3:C:N:N:C:3):N:2C2:C:C(Br):C(:C:C:2Br)C2:C:C(Br):C(:C:C:2Br)C2:C:N:N:C:2):N:1C1:C:C(Br):C(:C:C:1Br)C1:C:C(Br):C(:C:C:1Br)C1:C:N:N:C:1___BrC1:C:C(:C(Br):C:C:1C1:C:N:N:C:1)C1:C:C(Br):C(:C:C:1Br)C1:C:N:N:C:1,1
SR_hwx_v1-6c_Fe_1_Ch_v2-3c_triazine_Ch_1B_2Br_Ch_1x1x2,0.22083,0.77668,0.777575,2718.22,2113.62,11.98537,7.84772,34290.0231,,,,752,,120,120,96,Br12C48Fe3H12N6O13,0.032967033,6,6c_Fe_1_Ch,45,O:C(:O)C1:C:C(Br):C(:C:C:1Br)C1:N:C(:N:C(:N:1)C1:C:C(Br):C(:C:C:1Br)C(:O):O)C1:C:C(Br):C(:C:C:1Br)C(:O):O,1