name,k,VF,density,ASA_grav,ASA_vol,LPD,PLD,volume,,,,N_atoms,,N_metal_containing_bonds,N_metal_nonmetal_bonds,N_metal_linker_bonds,formula,metal_nonmetal_ratio,metal_node_connectivity,metal_node_name,N_atoms_per_linker,linker_SMILES,N_ccs
SR_dni_v1-8c_Co_1_Ch_v2-3c_B_Ch_v3-3c_B_Ch_1B_2OH_Ch_1x1x1,0.12436,0.80772,0.457386,3774.56,1726.43,24.61423,6.65174,50142.65498,,,,1326,,120,120,96,C112Co4H64O41,0.01843318,8,8c_Co_1_Ch,162,O:C(:O)C1:C:C(O):C(:C:C:1O)C1:C:C(:C:C(:C:1)C1:C:C(O):C(:C:C:1O)C1:C:C(:C:C(:C:1)C1:C:C(O):C(:C:C:1O)C1:C:C(:C:C(:C:1)C1:C:C(O):C(:C:C:1O)C(:O):O)C1:C:C(O):C(:C:C:1O)C(:O):O)C1:C:C(O):C(:C:C:1O)C1:C:C(:C:C(:C:1)C1:C:C(O):C(:C:C:1O)C(:O):O)C1:C:C(O):C(:C:C:1O)C(:O):O)C1:C:C(O):C(:C:C:1O)C(:O):O,1
SR_dni_v1-8c_Co_1_Ch_v2-3c_triazine_Ch_v3-3c_triazine_Ch_1B_2indole_Ch_1x1x1,0.12605,0.90632,0.223235,5296.69,1182.4,39.53893,11.37321,128101.2216,,,,1662,,120,120,96,C144Co4H72N40O17,0.014652015,8,8c_Co_1_Ch,204,O:C(:O)C1:C:C2:C:C3:[NH]:C(:C:C:3:C:C:2:[NH]:1)C1:N:C(:N:C(:N:1)C1:C:C2:C:C3:[NH]:C(:C:C:3:C:C:2:[NH]:1)C1:N:C(:N:C(:N:1)C1:C:C2:C:C3:[NH]:C(:C:C:3:C:C:2:[NH]:1)C1:N:C(:N:C(:N:1)C1:C:C2:C:C3:[NH]:C(:C:C:3:C:C:2:[NH]:1)C(:O):O)C1:C:C2:C:C3:[NH]:C(:C:C:3:C:C:2:[NH]:1)C(:O):O)C1:C:C2:C:C3:[NH]:C(:C:C:3:C:C:2:[NH]:1)C1:N:C(:N:C(:N:1)C1:C:C2:C:C3:[NH]:C(:C:C:3:C:C:2:[NH]:1)C(:O):O)C1:C:C2:C:C3:[NH]:C(:C:C:3:C:C:2:[NH]:1)C(:O):O)C1:C:C2:C:C3:[NH]:C(:C:C:3:C:C:2:[NH]:1)C(:O):O,1
SR_epc_v1-6c_Fe_1_Ch_v2-4c_1anC_Ch_v3-4c_porphyrin_Ch_1B_2F_Ch_1x1x1,0.15561,0.81736,0.462869,3422.62,1584.23,23.03337,16.74271,41113.18981,,,,932,,120,120,96,C125F24Fe6H44N8O26,0.026431718,6,6c_Fe_1_Ch,"53,86",O:C(:O)C1:C:C(F):C(:C:C:1F)C(C1:C:C(F):C(:C:C:1F)C(:O):O)(C1:C:C(F):C(:C:C:1F)C(:O):O)C1:C:C(F):C(:C:C:1F)C(:O):O___O:C(:O)C1:C:C(F):C(:C:C:1F)C1:C2:C:C:C(:N:2):C(C2:C:C(F):C(:C:C:2F)C(:O):O):C2:C:C:C(:[NH]:2):C(C2:C:C(F):C(:C:C:2F)C(:O):O):C2:C:C:C(:N:2):C(C2:C:C(F):C(:C:C:2F)C(:O):O):C2:C:C:C:1:[NH]:2,1
SR_eps_v1-3c_B_Ch_v2-8c_Co_1_Ch_v3-4c_porphyrin_Ch_1B_2OH_Ch_1x1x1,0.13295,0.77548,0.525128,3386.07,1778.12,17.23607,8.28373,23832.73722,,,,729,,60,60,48,C124Co4H70N4O41,0.016736402,8,8c_Co_1_Ch,238,O:C(:O)C1:C:C(O):C(:C:C:1O)C1:C:C(:C:C(:C:1)C1:C:C(O):C(:C:C:1O)C1:C2:C:C:C(:N:2):C(C2:C:C(O):C(:C:C:2O)C2:C:C(:C:C(:C:2)C2:C:C(O):C(:C:C:2O)C(:O):O)C2:C:C(O):C(:C:C:2O)C(:O):O):C2:C:C:C(:[NH]:2):C(C2:C:C(O):C(:C:C:2O)C2:C:C(:C:C(:C:2)C2:C:C(O):C(:C:C:2O)C(:O):O)C2:C:C(O):C(:C:C:2O)C(:O):O):C2:C:C:C(:N:2):C(C2:C:C(O):C(:C:C:2O)C2:C:C(:C:C(:C:2)C2:C:C(O):C(:C:C:2O)C(:O):O)C2:C:C(O):C(:C:C:2O)C(:O):O):C2:C:C:C:1:[NH]:2)C1:C:C(O):C(:C:C:1O)C(:O):O,1
SR_dmh_v1-4c_bicyclooctane_Ch_v2-3c_B_Ch_v3-3c_Cu_imadazoline_Ch_ntn_edge_2x2x3,0.34341,0.643,1.01195,1700.5,1720.82,6.1808,5.26106,44452.54371,,,,2160,,288,288,288,C23Cu3H13N6,0.071428571,3,3c_Cu_imadazoline_Ch,,None,1
SR_dnj_v1-8c_Co_1_Ch_v2-6c_B_Ch_v3-3c_B_Ch_1B_2CH3_Ch_ntn_edge_1x1x1,0.18087,0.7326,0.584027,2601.83,1519.54,17.70807,12.0516,30462.02134,,,,1182,,120,120,96,C100Co4H76O17,0.020725389,8,8c_Co_1_Ch,288,CC1:C:C(C2:C:C(:C:C(:C:2)C2:C(C3:C:C(:C:C(:C:3)C3:C:C(C):C(:C:C:3C)C(:O):O)C3:C:C(C):C(:C:C:3C)C(:O):O):C(C3:C:C(:C:C(:C:3)C3:C:C(C):C(:C:C:3C)C(:O):O)C3:C:C(C):C(:C:C:3C)C(:O):O):C(C3:C:C(:C:C(:C:3)C3:C:C(C):C(:C:C:3C)C(:O):O)C3:C:C(C):C(:C:C:3C)C(:O):O):C(C3:C:C(:C:C(:C:3)C3:C:C(C):C(:C:C:3C)C(:O):O)C3:C:C(C):C(:C:C:3C)C(:O):O):C:2C2:C:C(:C:C(:C:2)C2:C:C(C):C(:C:C:2C)C(:O):O)C2:C:C(C):C(:C:C:2C)C(:O):O)C2:C:C(C):C(:C:C:2C)C(:O):O):C(C):C:C:1C(:O):O,1
SR_epc_v1-6c_bicyclooctane_Ch_v2-4c_1anC_Ch_v3-4c_Ni_1_Ch_1B_2F_Ch_1x1x2,0.22038,0.72394,0.717435,2014.94,1445.59,17.4444,12.595,39631.84226,,,,1352,,144,128,128,C97F24H28Ni4O16,0.024242424,4,4c_Ni_1_Ch,,None,1
SR_dpa_v1-3c_B_Ch_v2-3c_B_Ch_v3-6c_Mg_1_Ch_ntn_edge_1x1x1,0.44866,0.43414,1.29482,0,0,4.68778,1.88736,20117.40635,,,,1344,,480,480,192,C6H3Mg1O4,0.076923077,6,6c_Mg_1_Ch,54,O:C(:O)C1:C:C(:C:C(:C:1)C1:C:C(:C:C(:C:1)C1:C:C(:C:C(:C:1)C(:O):O)C(:O):O)C1:C:C(:C:C(:C:1)C(:O):O)C(:O):O)C(:O):O,1
SR_epa_v1-6c_Mg_1_Ch_v2-6c_B_Ch_v3-4c_B_Ch_1B_4F_Ch_2x2x1,0.40358,0.71294,0.726945,2466.86,1793.27,15.2711,6.87247,158475.4114,,,,4248,,1080,1080,432,C28F12H4Mg3O12,0.053571429,6,6c_Mg_1_Ch,"84,60",O:C(:O)C1:C(F):C(F):C(:C(F):C:1F)C1:C(C2:C(F):C(F):C(C(:O):O):C(F):C:2F):C(C2:C(F):C(F):C(C(:O):O):C(F):C:2F):C(C2:C(F):C(F):C(C(:O):O):C(F):C:2F):C(C2:C(F):C(F):C(C(:O):O):C(F):C:2F):C:1C1:C(F):C(F):C(C(:O):O):C(F):C:1F___O:C(:O)C1:C(F):C(F):C(C2:C:C(:C(:C:C:2C2:C(F):C(F):C(C(:O):O):C(F):C:2F)C2:C(F):C(F):C(C(:O):O):C(F):C:2F)C2:C(F):C(F):C(C(:O):O):C(F):C:2F):C(F):C:1F,1
SR_dna_v1-8c_Co_1_Ch_v2-6c_B_Ch_v3-3c_B_Ch_ntn_edge_1B_4Br_Ch_1x1x1,0.17651,0.62286,1.39143,994.538,1383.83,17.42442,6.44754,36098.5908,,,,1308,,240,240,192,Br16C60Co4H12O17,0.038095238,8,8c_Co_1_Ch,156,O:C(:O)C1:C:C(:C:C(:C:1)C1:C(Br):C(Br):C(:C(Br):C:1Br)C1:C(C2:C(Br):C(Br):C(C3:C:C(:C:C(:C:3)C(:O):O)C(:O):O):C(Br):C:2Br):C(C2:C(Br):C(Br):C(C3:C:C(:C:C(:C:3)C(:O):O)C(:O):O):C(Br):C:2Br):C(C2:C(Br):C(Br):C(C3:C:C(:C:C(:C:3)C(:O):O)C(:O):O):C(Br):C:2Br):C(C2:C(Br):C(Br):C(C3:C:C(:C:C(:C:3)C(:O):O)C(:O):O):C(Br):C:2Br):C:1C1:C(Br):C(Br):C(C2:C:C(:C:C(:C:2)C(:O):O)C(:O):O):C(Br):C:1Br)C(:O):O,1
SR_dnr_v1-4c_pyrene_Ch_v2-4c_Cu_1_Ch_v3-3c_triazine_Ch_1TrU_Ch_ntn_edge_1x1x2,0.6374,0.87154,0.342615,4641.62,1590.29,29.10778,27.49255,43237.7372,,,,540,,108,96,96,C26Cu2H3N6O8,0.046511628,4,4c_Cu_1_Ch,86,O:C(:O)C#CC1:N:C(C#CC(:O):O):N:C(:N:1)C1:C:C(C2:N:C(C#CC(:O):O):N:C(C#CC(:O):O):N:2):C2:C:C:C3:C(:C:C(C4:N:C(C#CC(:O):O):N:C(C#CC(:O):O):N:4):C4:C:C:C:1:C:2:C:4:3)C1:N:C(C#CC(:O):O):N:C(C#CC(:O):O):N:1,1
SR_dnl_v1-4c_porphyrin_Ch_v2-6c_CdZn_1_Ch_v3-3c_triazine_Ch_ntn_edge_1x1x1,0.22565,0.6007,1.10159,1198.22,1319.94,8.89571,3.80193,42396.12774,,,,2192,,256,256,192,C72Cd3H30N18O13Zn1,0.030075188,6,6c_CdZn_1_Ch,264,O:C(:O)C1:C2:C:C:C(:N:2):C2C3:N:C4:N:C(:N:3)C3:C5:C:C:C(:N:5):C(C(:O):O):C5:C:C:C(:[NH]:5):C(C(:O):O):C5:C:C:C(:N:5):C(C5:N:C6:N:C(:N:5)C5:C7:C:C:C(:N:7):C(C(:O):O):C7:C:C:C(:[NH]:7):C(C(:O):O):C7:C:C:C(:N:7):C(C7:N:C(:N:C(:N:7)C7:C8:C:C:C(:N:8):C(C(:O):O):C8:C:C:C(:[NH]:8):C(C(:O):O):C8:C:C:C(:N:8):C(C8:N:C(:N:C(:N:8)C8:C9:C:C:C(:N:9):C(C(:O):O):C9:C:C:C(:[NH]:9):C(C(:O):O):C9:C:C:C(:N:9):C6:C6:C:C:C:8:[NH]:6)C(:C6:C:C:C(:N:6):C(C(:O):O):C6:C:C:C:1:[NH]:6):C1:C:C:C:2:[NH]:1):C1:C:C:C:7:[NH]:1)C1:C2:C:C:C(:N:2):C(C(:O):O):C2:C:C:C(:[NH]:2):C(C(:O):O):C2:C:C:C(:N:2):C4:C2:C:C:C:1:[NH]:2):C1:C:C:C:5:[NH]:1):C1:C:C:C:3:[NH]:1,1
SR_eft_v1-4c_porphyrin_Ch_v2-8c_Co_1_Ch_v3-3c_B_Ch_ntn_edge_1B_2SH_Ch_2x2x2,0.15751,0.7097,0.697812,2654.41,1852.28,12.5193,7.95907,44413.33066,,,,1560,,160,160,128,C100Co4H54N4O17S16,0.020942408,8,8c_Co_1_Ch,190,O:C(:O)C1:C:C(S):C(:C:C:1S)C1:C:C(:C:C(:C:1)C1:C2:C:C:C(:N:2):C(C2:C:C(:C:C(:C:2)C2:C:C(S):C(:C:C:2S)C(:O):O)C2:C:C(S):C(:C:C:2S)C(:O):O):C2:C:C:C(:[NH]:2):C(C2:C:C(:C:C(:C:2)C2:C:C(S):C(:C:C:2S)C(:O):O)C2:C:C(S):C(:C:C:2S)C(:O):O):C2:C:C:C(:N:2):C(C2:C:C(:C:C(:C:2)C2:C:C(S):C(:C:C:2S)C(:O):O)C2:C:C(S):C(:C:C:2S)C(:O):O):C2:C:C:C:1:[NH]:2)C1:C:C(S):C(:C:C:1S)C(:O):O,1
SR_dni_v1-8c_Co_1_Ch_v2-3c_triazine_Ch_v3-3c_B_Ch_3B_fused_8H_Ch_1x1x1,0.08955,0.9038,0.207609,5588.99,1160.32,42.1624,11.98024,149870.0207,,,,2022,,120,120,96,C204Co4H108N4O17,0.012012012,8,8c_Co_1_Ch,249,O:C(:O)C1:C:C:C2:C(:C:C:C3:C:C(:C:C:C:3:2)C2:C:C(:C:C(:C:2)C2:C:C:C3:C(:C:C:C4:C:C(:C:C:C:4:3)C3:N:C(:N:C(:N:3)C3:C:C:C4:C(:C:C:C5:C:C(:C:C:C:5:4)C4:C:C(:C:C(:C:4)C4:C:C:C5:C(:C:C:C6:C:C(:C:C:C:6:5)C(:O):O):C:4)C4:C:C:C5:C(:C:C:C6:C:C(:C:C:C:6:5)C(:O):O):C:4):C:3)C3:C:C:C4:C(:C:C:C5:C:C(:C:C:C:5:4)C4:C:C(:C:C(:C:4)C4:C:C:C5:C(:C:C:C6:C:C(:C:C:C:6:5)C(:O):O):C:4)C4:C:C:C5:C(:C:C:C6:C:C(:C:C:C:6:5)C(:O):O):C:4):C:3):C:2)C2:C:C:C3:C(:C:C:C4:C:C(:C:C:C:4:3)C(:O):O):C:2):C:1,1
SR_eft_v1-4c_porphyrin_Ch_v2-8c_Co_1_Ch_v3-3c_B_Ch_1B_2SH_Ch_2x1x2,0.14658,0.77116,0.540677,3435.31,1857.39,11.51351,9.01745,35565.31354,,,,972,,80,80,64,C124Co4H70N4O17S24,0.016736402,8,8c_Co_1_Ch,238,O:C(:O)C1:C:C(S):C(:C:C:1S)C1:C:C(:C:C(:C:1)C1:C:C(S):C(:C:C:1S)C1:C2:C:C:C(:N:2):C(C2:C:C(S):C(:C:C:2S)C2:C:C(:C:C(:C:2)C2:C:C(S):C(:C:C:2S)C(:O):O)C2:C:C(S):C(:C:C:2S)C(:O):O):C2:C:C:C(:[NH]:2):C(C2:C:C(S):C(:C:C:2S)C2:C:C(:C:C(:C:2)C2:C:C(S):C(:C:C:2S)C(:O):O)C2:C:C(S):C(:C:C:2S)C(:O):O):C2:C:C:C(:N:2):C(C2:C:C(S):C(:C:C:2S)C2:C:C(:C:C(:C:2)C2:C:C(S):C(:C:C:2S)C(:O):O)C2:C:C(S):C(:C:C:2S)C(:O):O):C2:C:C:C:1:[NH]:2)C1:C:C(S):C(:C:C:1S)C(:O):O,1
SR_ecf_v1-8c_Mn_1_Ch_1B_4CN_Ch_1x1x1,0.28949,0.74072,0.645598,2614.96,1688.21,17.15454,6.92205,26785.9883,,,,606,,120,120,96,C48Cl1Mn4N48,0.041237113,8,8c_Mn_1_Ch,24,N#CC1:C(C#N):C(C2:N:N:N:N:2):C(C#N):C(C#N):C:1C1:N:N:N:N:1,1
SR_dnj_v1-8c_Co_1_Ch_v2-6c_B_Ch_v3-3c_triazine_Ch_1B_2DoU_Ch_1x1x1,0.08726,0.92706,0.152865,6032.78,922.199,42.0032,31.29633,163099.0945,,,,1638,,120,120,96,C144Co4H96N12O17,0.014869888,8,8c_Co_1_Ch,402,O:C(:O)C=CC1:C:C:C(C=CC2:N:C(C=CC3:C:C:C(C=CC(:O):O):C:C:3):N:C(C=CC3:C:C:C(C=CC4:C(C=CC5:C:C:C(C=CC6:N:C(C=CC7:C:C:C(C=CC(:O):O):C:C:7):N:C(C=CC7:C:C:C(C=CC(:O):O):C:C:7):N:6):C:C:5):C(C=CC5:C:C:C(C=CC6:N:C(C=CC7:C:C:C(C=CC(:O):O):C:C:7):N:C(C=CC7:C:C:C(C=CC(:O):O):C:C:7):N:6):C:C:5):C(C=CC5:C:C:C(C=CC6:N:C(C=CC7:C:C:C(C=CC(:O):O):C:C:7):N:C(C=CC7:C:C:C(C=CC(:O):O):C:C:7):N:6):C:C:5):C(C=CC5:C:C:C(C=CC6:N:C(C=CC7:C:C:C(C=CC(:O):O):C:C:7):N:C(C=CC7:C:C:C(C=CC(:O):O):C:C:7):N:6):C:C:5):C:4C=CC4:C:C:C(C=CC5:N:C(C=CC6:C:C:C(C=CC(:O):O):C:C:6):N:C(C=CC6:C:C:C(C=CC(:O):O):C:C:6):N:5):C:C:4):C:C:3):N:2):C:C:1,1
SR_epp_v1-4c_ethene_Ch_v2-3c_B_Ch_v3-6c_Mg_1_Ch_1B_2CF3_Ch_ntn_edge_1x1x1,0.08816,0.8267,0.432872,3063.61,1326.15,32.448,16.27131,115013.2077,,,,2400,,240,240,96,C25F12H8Mg1O4,0.020408163,6,6c_Mg_1_Ch,,None,1
SR_ecf_v1-8c_Zr_1_Ch_1B_4F_Ch_2x2x2,0.12952,0.70252,0.945933,1662.36,1572.48,16.38171,7.27534,171560.4272,,,,4896,,2304,2304,768,C16F8H8O16Zr3,0.0625,8,8c_Zr_1_Ch,16,O:C(:O)C1:C(F):C(F):C(C(:O):O):C(F):C:1F,1
SR_dni_v1-8c_Co_1_Ch_v2-3c_triazine_Ch_v3-3c_triazine_Ch_2B_4H_Ch_1x1x1,0.10022,0.91094,0.19245,5836.17,1123.17,40.08427,12.48518,147379.1852,,,,1806,,120,120,96,C168Co4H96N16O17,0.013468013,8,8c_Co_1_Ch,222,O:C(:O)C1:C:C:C(:C:C:1)C1:C:C:C(:C:C:1)C1:N:C(:N:C(:N:1)C1:C:C:C(:C:C:1)C1:C:C:C(:C:C:1)C1:N:C(:N:C(:N:1)C1:C:C:C(:C:C:1)C1:C:C:C(:C:C:1)C1:N:C(:N:C(:N:1)C1:C:C:C(:C:C:1)C1:C:C:C(:C:C:1)C(:O):O)C1:C:C:C(:C:C:1)C1:C:C:C(:C:C:1)C(:O):O)C1:C:C:C(:C:C:1)C1:C:C:C(:C:C:1)C1:N:C(:N:C(:N:1)C1:C:C:C(:C:C:1)C1:C:C:C(:C:C:1)C(:O):O)C1:C:C:C(:C:C:1)C1:C:C:C(:C:C:1)C(:O):O)C1:C:C:C(:C:C:1)C1:C:C:C(:C:C:1)C(:O):O,1
SR_epa_v1-6c_Mg_1_Ch_v2-6c_B_Ch_v3-4c_pyrene_Ch_1DoU_Ch_ntn_edge_2x2x1,0.56011,0.64596,0.803534,2069.44,1662.87,10.19159,6.06747,82737.97864,,,,2880,,1080,1080,432,C17H8Mg3O12,0.081081081,6,6c_Mg_1_Ch,"34,48",O:C(:O)C1:C:C(C(:O):O):C2:C:C:C3:C(:C:C(C(:O):O):C4:C:C:C:1:C:2:C:4:3)C(:O):O___O:C(:O)C=CC1:C(C=CC(:O):O):C(C=CC(:O):O):C(C=CC(:O):O):C(C=CC(:O):O):C:1C=CC(:O):O,1
SR_epa_v1-6c_Mg_1_Ch_v2-6c_Mg_1_Ch_v3-4c_pyrene_Ch_1B_2CF3_Ch_1x1x1,0.13219,0.76078,0.601601,2897.15,1742.93,18.43193,7.9903,68031.62543,,,,1638,,360,360,144,C40F18H13Mg4O16,0.045977011,6,6c_Mg_1_Ch,"22,98",O:C(:O)C1:C:C(:C(:C:C:1C(F)(F)F)C(:O):O)C(F)(F)F___O:C(:O)C1:C:C(:C(:C:C:1C(F)(F)F)C1:C:C(C2:C:C(:C(:C:C:2C(F)(F)F)C(:O):O)C(F)(F)F):C2:C:C:C3:C(:C:C(C4:C:C(:C(:C:C:4C(F)(F)F)C(:O):O)C(F)(F)F):C4:C:C:C:1:C:2:C:4:3)C1:C:C(:C(:C:C:1C(F)(F)F)C(:O):O)C(F)(F)F)C(F)(F)F,1
SR_eft_v1-4c_porphyrin_Ch_v2-8c_Mn_1_Ch_v3-3c_triazine_Ch_1B_2NH2_Ch_1x1x2,0.11334,0.84428,0.354744,4763.71,1689.9,15.24487,12.28367,25198.52236,,,,542,,40,40,32,C112Cl1H82Mn4N72,0.014981273,8,8c_Mn_1_Ch,266,NC1:C:C(C2:N:C(:N:C(:N:2)C2:C:C(N):C(:C:C:2N)C2:C3:C:C:C(:N:3):C(C3:C:C(N):C(:C:C:3N)C3:N:C(:N:C(:N:3)C3:C:C(N):C(:C:C:3N)C3:N:N:N:N:3)C3:C:C(N):C(:C:C:3N)C3:N:N:N:N:3):C3:C:C:C(:[NH]:3):C(C3:C:C(N):C(:C:C:3N)C3:N:C(:N:C(:N:3)C3:C:C(N):C(:C:C:3N)C3:N:N:N:N:3)C3:C:C(N):C(:C:C:3N)C3:N:N:N:N:3):C3:C:C:C(:N:3):C(C3:C:C(N):C(:C:C:3N)C3:N:C(:N:C(:N:3)C3:C:C(N):C(:C:C:3N)C3:N:N:N:N:3)C3:C:C(N):C(:C:C:3N)C3:N:N:N:N:3):C3:C:C:C:2:[NH]:3)C2:C:C(N):C(:C:C:2N)C2:N:N:N:N:2):C(N):C:C:1C1:N:N:N:N:1,1
SR_eft_v1-4c_porphyrin_Ch_v2-8c_Mn_1_Ch_v3-3c_B_Ch_1B_4F_Ch_1x1x2,0.1819,0.8427,0.414928,3979.83,1651.34,16.06572,12.3104,25479.67792,,,,470,,40,40,32,C124Cl1F48H22Mn4N36,0.017316017,8,8c_Mn_1_Ch,230,FC1:C(F):C(C2:N:N:N:N:2):C(F):C(F):C:1C1:C:C(:C:C(:C:1)C1:C(F):C(F):C(:C(F):C:1F)C1:C2:C:C:C(:N:2):C(C2:C(F):C(F):C(C3:C:C(:C:C(:C:3)C3:C(F):C(F):C(C4:N:N:N:N:4):C(F):C:3F)C3:C(F):C(F):C(C4:N:N:N:N:4):C(F):C:3F):C(F):C:2F):C2:C:C:C(:[NH]:2):C(C2:C(F):C(F):C(C3:C:C(:C:C(:C:3)C3:C(F):C(F):C(C4:N:N:N:N:4):C(F):C:3F)C3:C(F):C(F):C(C4:N:N:N:N:4):C(F):C:3F):C(F):C:2F):C2:C:C:C(:N:2):C(C2:C(F):C(F):C(C3:C:C(:C:C(:C:3)C3:C(F):C(F):C(C4:N:N:N:N:4):C(F):C:3F)C3:C(F):C(F):C(C4:N:N:N:N:4):C(F):C:3F):C(F):C:2F):C2:C:C:C:1:[NH]:2)C1:C(F):C(F):C(C2:N:N:N:N:2):C(F):C:1F,1
SR_ecg_v1-8c_Co_2_Ch_1B_2CF3_Ch_1x1x1,0.14873,0.6646,0.932322,1732.64,1615.38,12.05955,8.41402,40590.61158,,,,1404,,240,240,192,C48Cl1Co4F24H16N24,0.03539823,8,8c_Co_2_Ch,28,FC(F)(F)C1:C:C(C2C:N:N:N:2):C(:C:C:1C1C:N:N:N:1)C(F)(F)F,1
SR_epq_v1-4c_Cu_1_Ch_v2-6c_B_Ch_v3-3c_B_Ch_1B_2OH_Ch_1x1x1,0.18028,0.76752,0.562219,2479.98,1394.29,24.87128,11.30844,38059.3667,,,,1176,,108,96,96,C25Cu1H13O10,0.020833333,4,4c_Cu_1_Ch,,None,1
SR_dnx_v1-4c_Ni_1_Ch_v2-4c_1anC_Ch_v3-3c_B_Ch_1B_2NO2_Ch_ntn_edge_1x1x1,0.38275,0.33624,1.72805,0,0,6.14046,1.3759,12490.14001,,,,1008,,108,96,96,C19H6N4Ni1O12,0.024390244,4,4c_Ni_1_Ch,492,O:C(:O)C1:C:C(:C(:C:C:1N(:O):O)C1(C2:C:C3:C:C(:C:2)C(C2:C:C4:C:C(:C:2)C(C2:C:C5:C:C(:C:2)C(C2:C:C6:C:C(:C:2)C(C2:C:C(:C:C(:C:2)C4(C2:C:C(:C(:C:C:2N(:O):O)C(:O):O)N(:O):O)C2:C:C(:C(:C:C:2N(:O):O)C(:O):O)N(:O):O)C(C2:C:C1:C:C(:C:2)C(C1:C:C(:C:C(:C:1)C6(C1:C:C(:C(:C:C:1N(:O):O)C(:O):O)N(:O):O)C1:C:C(:C(:C:C:1N(:O):O)C(:O):O)N(:O):O)C(C1:C:C(:C:C(:C:1)C5(C1:C:C(:C(:C:C:1N(:O):O)C(:O):O)N(:O):O)C1:C:C(:C(:C:C:1N(:O):O)C(:O):O)N(:O):O)C3(C1:C:C(:C(:C:C:1N(:O):O)C(:O):O)N(:O):O)C1:C:C(:C(:C:C:1N(:O):O)C(:O):O)N(:O):O)(C1:C:C(:C(:C:C:1N(:O):O)C(:O):O)N(:O):O)C1:C:C(:C(:C:C:1N(:O):O)C(:O):O)N(:O):O)(C1:C:C(:C(:C:C:1N(:O):O)C(:O):O)N(:O):O)C1:C:C(:C(:C:C:1N(:O):O)C(:O):O)N(:O):O)(C1:C:C(:C(:C:C:1N(:O):O)C(:O):O)N(:O):O)C1:C:C(:C(:C:C:1N(:O):O)C(:O):O)N(:O):O)(C1:C:C(:C(:C:C:1N(:O):O)C(:O):O)N(:O):O)C1:C:C(:C(:C:C:1N(:O):O)C(:O):O)N(:O):O)(C1:C:C(:C(:C:C:1N(:O):O)C(:O):O)N(:O):O)C1:C:C(:C(:C:C:1N(:O):O)C(:O):O)N(:O):O)(C1:C:C(:C(:C:C:1N(:O):O)C(:O):O)N(:O):O)C1:C:C(:C(:C:C:1N(:O):O)C(:O):O)N(:O):O)(C1:C:C(:C(:C:C:1N(:O):O)C(:O):O)N(:O):O)C1:C:C(:C(:C:C:1N(:O):O)C(:O):O)N(:O):O)C1:C:C(:C(:C:C:1N(:O):O)C(:O):O)N(:O):O)N(:O):O,1
SR_dnl_v1-4c_Ni_1_Ch_v2-6c_Ni_1_Ch_v3-3c_B_Ch_1B_2F_Ch_1x1x1,0.13728,0.79548,0.579139,3734.69,2162.91,14.81138,7.57727,133428.6448,,,,3296,,720,672,576,C51F12H16Ni5O19,0.051020408,"4,6","4c_Ni_1_Ch,6c_Ni_1_Ch","16,48",O:C(:O)C1:C:C(F):C(:C:C:1F)C(:O):O___O:C(:O)C1:C:C(F):C(:C:C:1F)C1:C:C(:C:C(:C:1)C1:C:C(F):C(:C:C:1F)C(:O):O)C1:C:C(F):C(:C:C:1F)C(:O):O,1
SR_dnj_v1-8c_Co_1_Ch_v2-6c_B_Ch_v3-3c_triazine_Ch_1B_4H_Ch_1x1x1,0.13623,0.84272,0.366873,3358.27,1232.06,25.8183,19.18532,50982.07697,,,,1062,,120,120,96,C96Co4H48N12O17,0.023121387,8,8c_Co_1_Ch,258,O:C(:O)C1:C:C:C(:C:C:1)C1:N:C(:N:C(:N:1)C1:C:C:C(:C:C:1)C1:C(C2:C:C:C(:C:C:2)C2:N:C(:N:C(:N:2)C2:C:C:C(:C:C:2)C(:O):O)C2:C:C:C(:C:C:2)C(:O):O):C(C2:C:C:C(:C:C:2)C2:N:C(:N:C(:N:2)C2:C:C:C(:C:C:2)C(:O):O)C2:C:C:C(:C:C:2)C(:O):O):C(C2:C:C:C(:C:C:2)C2:N:C(:N:C(:N:2)C2:C:C:C(:C:C:2)C(:O):O)C2:C:C:C(:C:C:2)C(:O):O):C(C2:C:C:C(:C:C:2)C2:N:C(:N:C(:N:2)C2:C:C:C(:C:C:2)C(:O):O)C2:C:C:C(:C:C:2)C(:O):O):C:1C1:C:C:C(:C:C:1)C1:N:C(:N:C(:N:1)C1:C:C:C(:C:C:1)C(:O):O)C1:C:C:C(:C:C:1)C(:O):O)C1:C:C:C(:C:C:1)C(:O):O,1
SR_dnr_v1-4c_B_Ch_v2-4c_Ni_1_Ch_v3-3c_triazine_Ch_1DoU_Ch_2TrU_Ch_1x1x2,0.27113,0.9082,0.22782,5802.99,1322.03,31.3399,30.0527,82416.43135,,,,648,,108,96,96,C33H5N6Ni2O8,0.038461538,4,4c_Ni_1_Ch,104,O:C(:O)C#CC#CC1:N:C(C#CC#CC(:O):O):N:C(C=CC2:C:C(C=CC3:N:C(C#CC#CC(:O):O):N:C(C#CC#CC(:O):O):N:3):C(C=CC3:N:C(C#CC#CC(:O):O):N:C(C#CC#CC(:O):O):N:3):C:C:2C=CC2:N:C(C#CC#CC(:O):O):N:C(C#CC#CC(:O):O):N:2):N:1,1
SR_dnr_v1-4c_ethene_Ch_v2-4c_Ni_1_Ch_v3-3c_B_Ch_1B_2Br_Ch_1x1x2,0.13709,0.8509,0.519093,3038.12,1577.07,30.6929,29.46663,87890.08395,,,,1116,,108,96,96,Br12C53H18Ni2O8,0.021978022,4,4c_Ni_1_Ch,182,O:C(:O)C1:C:C(Br):C(:C:C:1Br)C1:C:C(:C:C(:C:1)C1:C:C(Br):C(:C:C:1Br)C(:O):O)C1:C:C(Br):C(:C:C:1Br)C(=C(C1:C:C(Br):C(:C:C:1Br)C1:C:C(:C:C(:C:1)C1:C:C(Br):C(:C:C:1Br)C(:O):O)C1:C:C(Br):C(:C:C:1Br)C(:O):O)C1:C:C(Br):C(:C:C:1Br)C1:C:C(:C:C(:C:1)C1:C:C(Br):C(:C:C:1Br)C(:O):O)C1:C:C(Br):C(:C:C:1Br)C(:O):O)C1:C:C(Br):C(:C:C:1Br)C1:C:C(:C:C(:C:1)C1:C:C(Br):C(:C:C:1Br)C(:O):O)C1:C:C(Br):C(:C:C:1Br)C(:O):O,1
SR_dpa_v1-3c_B_Ch_v2-3c_B_Ch_v3-6c_Mg_1_Ch_1B_4Br_Ch_ntn_edge_1x1x1,0.35546,0.51348,1.71237,0,0,5.38935,2.98691,51675.56979,,,,2304,,480,480,192,Br4C12H3Mg1O4,0.043478261,6,6c_Mg_1_Ch,114,O:C(:O)C1:C(Br):C(Br):C(C2:C:C(:C:C(:C:2)C2:C(Br):C(Br):C(C(:O):O):C(Br):C:2Br)C2:C:C(:C:C(:C:2)C2:C:C(:C:C(:C:2)C2:C(Br):C(Br):C(C(:O):O):C(Br):C:2Br)C2:C(Br):C(Br):C(C(:O):O):C(Br):C:2Br)C2:C:C(:C:C(:C:2)C2:C(Br):C(Br):C(C(:O):O):C(Br):C:2Br)C2:C(Br):C(Br):C(C(:O):O):C(Br):C:2Br):C(Br):C:1Br,1
SR_epp_v1-4c_B_Ch_v2-3c_triazine_Ch_v3-6c_Mg_1_Ch_1B_2thiophene_Ch_1x1x1,0.06157,0.95,0.111438,5867.79,653.894,61.46778,35.08271,567371.9805,,,,3168,,240,240,96,C38H14Mg1N3O4S6,0.015384615,6,6c_Mg_1_Ch,,None,1
SR_epc_v1-6c_Al_1_Ch_v2-4c_bicyclooctane_Ch_v3-4c_porphyrin_Ch_ntn_edge_1x1x2,0.35765,0.63882,0.882388,1672.48,1475.78,12.61613,7.2548,21600.73866,,,,992,,240,240,192,Al3C30H12N4O13,0.050847458,6,6c_Al_1_Ch,"46,24",O:C(:O)C1:C2:C:C:C(:N:2):C(C(:O):O):C2:C:C:C(:[NH]:2):C(C(:O):O):C2:C:C:C(:N:2):C(C(:O):O):C2:C:C:C:1:[NH]:2___O:C(:O)C1=CC2(C=C(C(:O):O)C1C(=C2)C(:O):O)C(:O):O,1
SR_eft_v1-4c_porphyrin_Ch_v2-8c_Zr_1_Ch_v3-3c_B_Ch_1B_2NH2_Ch_2x1x2,0.10097,0.8091,0.44955,3712.33,1668.88,14.78898,11.60213,45108.49898,,,,1200,,192,192,64,C62H55N14O16Zr3,0.020408163,8,8c_Zr_1_Ch,262,NC1:C:C(C2:C:C(:C:C(:C:2)C2:C:C(N):C(:C:C:2N)C2:C3:C:C:C(:N:3):C(C3:C:C(N):C(:C:C:3N)C3:C:C(:C:C(:C:3)C3:C:C(N):C(:C:C:3N)C(:O):O)C3:C:C(N):C(:C:C:3N)C(:O):O):C3:C:C:C(:[NH]:3):C(C3:C:C(N):C(:C:C:3N)C3:C:C(:C:C(:C:3)C3:C:C(N):C(:C:C:3N)C(:O):O)C3:C:C(N):C(:C:C:3N)C(:O):O):C3:C:C:C(:N:3):C(C3:C:C(N):C(:C:C:3N)C3:C:C(:C:C(:C:3)C3:C:C(N):C(:C:C:3N)C(:O):O)C3:C:C(N):C(:C:C:3N)C(:O):O):C3:C:C:C:2:[NH]:3)C2:C:C(N):C(:C:C:2N)C(:O):O):C(N):C:C:1C(:O):O,1
SR_edq_v1-3c_B_Ch_v2-6c_Fe_1_Ch_ntn_edge_1B_2Br_Ch_1x1x1,0.26522,0.75396,0.805708,2248.95,1812,13.61785,9.13427,34232.10112,,,,872,,120,120,96,Br12C60Fe3H21O13,0.028301887,6,6c_Fe_1_Ch,70,O:C(:O)C1:C:C(Br):C(:C:C:1Br)C1:C:C(:C:C(:C:1)C1:C:C(Br):C(:C:C:1Br)C(:O):O)C1:C:C(:C:C(:C:1)C1:C:C(Br):C(:C:C:1Br)C(:O):O)C1:C:C(Br):C(:C:C:1Br)C(:O):O,1
SR_dpa_v1-3c_B_Ch_v2-3c_B_Ch_v3-6c_Mg_1_Ch_1TrU_Ch_ntn_edge_1x1x1,0.8109,0.62472,0.83131,1534.16,1275.36,6.42568,4.18164,35938.27533,,,,1536,,480,480,192,C8H3Mg1O4,0.066666667,6,6c_Mg_1_Ch,66,O:C(:O)C#CC1:C:C(C#CC(:O):O):C:C(:C:1)C1:C:C(:C:C(:C:1)C1:C:C(C#CC(:O):O):C:C(C#CC(:O):O):C:1)C1:C:C(C#CC(:O):O):C:C(C#CC(:O):O):C:1,1
SR_eft_v1-4c_porphyrin_Ch_v2-8c_Co_2_Ch_v3-3c_triazine_Ch_1B_4F_Ch_1x1x2,0.21702,0.84006,0.430798,3803.81,1638.68,16.27454,12.79494,24692.09668,,,,462,,40,40,32,C120Cl1Co4F48H18N40,0.017621145,8,8c_Co_2_Ch,226,FC1:C(F):C(C2:N:C(:N:C(:N:2)C2:C(F):C(F):C(:C(F):C:2F)C2:C3:C:C:C(:N:3):C(C3:C(F):C(F):C(C4:N:C(:N:C(:N:4)C4:C(F):C(F):C(C5C:N:N:N:5):C(F):C:4F)C4:C(F):C(F):C(C5C:N:N:N:5):C(F):C:4F):C(F):C:3F):C3:C:C:C(:[NH]:3):C(C3:C(F):C(F):C(C4:N:C(:N:C(:N:4)C4:C(F):C(F):C(C5C:N:N:N:5):C(F):C:4F)C4:C(F):C(F):C(C5C:N:N:N:5):C(F):C:4F):C(F):C:3F):C3:C:C:C(:N:3):C(C3:C(F):C(F):C(C4:N:C(:N:C(:N:4)C4:C(F):C(F):C(C5C:N:N:N:5):C(F):C:4F)C4:C(F):C(F):C(C5C:N:N:N:5):C(F):C:4F):C(F):C:3F):C3:C:C:C:2:[NH]:3)C2:C(F):C(F):C(C3C:N:N:N:3):C(F):C:2F):C(F):C(F):C:1C1C:N:N:N:1,1
SR_dnl_v1-4c_porphyrin_Ch_v2-6c_CdZn_1_Ch_v3-3c_triazine_Ch_1B_2NO2_Ch_1x1x1,0.12425,0.76982,0.581625,3500.39,2035.91,15.33461,7.5838,171352.1484,,,,4880,,256,256,192,C144Cd3H54N42O61Zn1,0.013289037,6,6c_CdZn_1_Ch,,None,1