name,k,VF,density,ASA_grav,ASA_vol,LPD,PLD,volume,,,,N_atoms,,N_metal_containing_bonds,N_metal_nonmetal_bonds,N_metal_linker_bonds,formula,metal_nonmetal_ratio,metal_node_connectivity,metal_node_name,N_atoms_per_linker,linker_SMILES,N_ccs
SR_bpq_v1-6c_Ni_1_Ch_v2-4c_B_Ch_ntn_edge_2B_2CH3_Ch_1x2x1,0.10595,0.83396,0.362578,4124.77,1495.55,19.8683,17.3548,52765.00063,,,,1296,,144,144,96,C38H34Ni2O7,0.025316456,6,6c_Ni_1_Ch,"148,6",CC1:C:C(:C(C):C:C:1C(:O):O)C1:C:C(C):C(:C:C:1C)C1:C:C(C2:C:C(C):C(:C:C:2C)C2:C:C(C):C(:C:C:2C)C(:O):O):C(:C:C:1C1:C:C(C):C(:C:C:1C)C1:C:C(C):C(:C:C:1C)C(:O):O)C1:C:C(C):C(:C:C:1C)C1:C:C(C):C(:C:C:1C)C(:O):O___O:C(:O)C(:O):O,1
SR_boe_v1-3c_pyrrole_Ch_v2-3c_Cu_imadazoline_Ch_ntn_edge_2B_4F_Ch_2x2x2,0.22304,0.81882,0.538961,3911.34,2108.06,16.07991,7.65006,69706.6462,,,,1584,,192,192,192,C16Cu2F4H6N5,0.064516129,3,3c_Cu_imadazoline_Ch,62,FC1:C(F):C(:C(F):C(F):C:1C1:C(F):C(F):C(:C(F):C:1F)N1:C(:C:C:C:1C1:C:N:N:C:1)C1:C:N:N:C:1)N1:C(:C:C:C:1C1:C:N:N:C:1)C1:C:N:N:C:1,1
SR_brk_v1-3c_pyrrole_Ch_v2-3c_triazine_Ch_v3-6c_Zn_1_Ch_1B_2Br_Ch_1x1x1,0.07076,0.80624,0.709227,2878.91,2041.8,13.37301,9.70802,39092.4964,,,,768,,128,128,96,Br12C49H14N4O13Zn4,0.043478261,6,6c_Zn_1_Ch,"46,45",O:C(:O)C1:C:C(Br):C(:C:C:1Br)C1:C:C:C(C2:C:C(Br):C(:C:C:2Br)C(:O):O):N:1C1:C:C(Br):C(:C:C:1Br)C(:O):O___O:C(:O)C1:C:C(Br):C(:C:C:1Br)C1:N:C(:N:C(:N:1)C1:C:C(Br):C(:C:C:1Br)C(:O):O)C1:C:C(Br):C(:C:C:1Br)C(:O):O,1
SR_brk_v1-3c_pyrrole_Ch_v2-3c_pyrrole_Ch_v3-6c_Ni_1_Ch_ntn_edge_1x2x2,0.43788,0.47214,1.75451,0,0,4.02206,2.83696,20018.34058,,,,1280,,576,576,384,C7H3N1Ni2O7,0.111111111,6,6c_Ni_1_Ch,16,O:C(:O)C1:C:C:C(C(:O):O):N:1C(:O):O,1
SR_brk_v1-3c_B_Ch_v2-3c_B_Ch_v3-6c_CdZn_1_Ch_2B_2Br_Ch_1x1x1,0.03607,0.89172,0.404091,3491.85,1411.03,20.88563,18.1099,119648.8393,,,,1288,,128,128,96,Br24C90Cd3H30O13Zn1,0.025477707,6,6c_CdZn_1_Ch,78,O:C(:O)C1:C:C(Br):C(:C:C:1Br)C1:C:C(Br):C(:C:C:1Br)C1:C:C(:C:C(:C:1)C1:C:C(Br):C(:C:C:1Br)C1:C:C(Br):C(:C:C:1Br)C(:O):O)C1:C:C(Br):C(:C:C:1Br)C1:C:C(Br):C(:C:C:1Br)C(:O):O,1
SR_bpa_v1-3c_B_Ch_v2-3c_Cu_imadazoline_Ch_ntn_edge_1B_2CN_Ch_2x1x1,0.10373,0.90378,0.242659,6226.06,1510.81,18.07089,14.61275,85320.31031,,,,1008,,96,96,96,C35Cu3H14N11,0.05,3,3c_Cu_imadazoline_Ch,"94,26",N#CC1:C:C(C2:C:C(:C:C(:C:2)C2:C:C(C#N):C(:C:C:2C#N)C2:C:N:N:C:2)C2:C:C(:C:C(:C:2)C2:C:C(C#N):C(:C:C:2C#N)C2:C:N:N:C:2)C2:C:C(C#N):C(:C:C:2C#N)C2:C:N:N:C:2):C(C#N):C:C:1C1:C:N:N:C:1___N#CC1:C:C(C2:C:N:N:C:2):C(C#N):C:C:1C1:C:N:N:C:1,1
SR_bpb_v1-3c_Cu_imadazoline_Ch_v2-3c_Cu_imadazoline_Ch_1B_2F_Ch_ntn_edge_1x1x2,0.09252,0.95278,0.156331,5423.89,847.924,30.81499,29.52053,132879.3938,,,,696,,144,144,144,C12Cu3F1H7N6,0.115384615,3,3c_Cu_imadazoline_Ch,"14,24",C1:N:N:C:C:1C1:C:N:N:C:1___FC1:C:C(C2:C:N:N:C:2):C(F):C:C:1C1:C:N:N:C:1,1
SR_bon_v1-8c_Co_1_Ch_v2-8c_Co_1_Ch_ntn_edge_1x1x1,0.30888,0.48876,1.86396,185.402,345.582,13.67484,3.89776,32274.99737,,,,1740,,1200,1200,960,C8Co4O17,0.16,8,8c_Co_1_Ch,6,O:C(:O)C(:O):O,1
SR_bpg_v1-3c_B_Ch_v2-3c_Cu_imadazoline_Ch_2B_4Br_Ch_1x1x1,0.07834,0.93396,0.271318,3288.65,892.27,30.05119,22.66348,146972.6973,,,,744,,48,48,48,Br8C17Cu1H3N2,0.033333333,3,3c_Cu_imadazoline_Ch,"224,34",BrC1:C(Br):C(:C(Br):C(Br):C:1C1:C:N:N:C:1)C1:C(Br):C(Br):C(C2:C:C3:C:C(:C:2)C2:C(Br):C(Br):C(:C(Br):C:2Br)C2:C(Br):C(Br):C(C4:C:C(:C:C(:C:4)C4:C(Br):C(Br):C(:C(Br):C:4Br)C4:C(Br):C(Br):C(C5:C:C(:C:C(:C:5)C5:C(Br):C(Br):C(:C(Br):C:5Br)C5:C(Br):C(Br):C(C6:C:C(:C:C(:C:6)C6:C(Br):C(Br):C(:C(Br):C:6Br)C6:C(Br):C(Br):C3:C(Br):C:6Br)C3:C(Br):C(Br):C(:C(Br):C:3Br)C3:C(Br):C(Br):C(C6:C:N:N:C:6):C(Br):C:3Br):C(Br):C:5Br)C3:C(Br):C(Br):C(:C(Br):C:3Br)C3:C(Br):C(Br):C(C5:C:N:N:C:5):C(Br):C:3Br):C(Br):C:4Br)C3:C(Br):C(Br):C(:C(Br):C:3Br)C3:C(Br):C(Br):C(C4:C:N:N:C:4):C(Br):C:3Br):C(Br):C:2Br):C(Br):C:1Br___BrC1:C(Br):C(:C(Br):C(Br):C:1C1:C:N:N:C:1)C1:C(Br):C(Br):C(C2:C:N:N:C:2):C(Br):C:1Br,1
SR_bpg_v1-3c_Cu_imadazoline_Ch_v2-3c_Cu_imadazoline_Ch_1B_2furan_Ch_ntn_edge_1x1x1,0.05544,0.95292,0.148793,5757.16,856.625,30.08719,24.10349,92103.81712,,,,512,,96,96,96,C14Cu3H8N6O1,0.103448276,3,3c_Cu_imadazoline_Ch,"30,14",C1:N:N:C:C:1C1:C:C2:C:C3:O:C(:C:C:3:C:C:2:O:1)C1:C:N:N:C:1___C1:N:N:C:C:1C1:C:N:N:C:1,1
SR_bps_v1-3c_Cu_imadazoline_Ch_v2-3c_Cu_imadazoline_Ch_1B_2CH3_Ch_1x1x1,0.03469,0.96864,0.0850047,6493.9,552.012,41.07492,31.29461,255541.3792,,,,1152,,144,144,144,C7Cu1H6N2,0.066666667,3,3c_Cu_imadazoline_Ch,30,CC1:C:C(C2:C:N:N:C:2):C(C):C:C:1C1:C:N:N:C:1,1
SR_bon_v1-8c_Co_1_Ch_v2-8c_Co_1_Ch_1TrU_Ch_1x1x1,0.22747,0.69808,0.948844,1672.59,1587.03,20.8818,7.41723,73491.36694,,,,2220,,1200,1200,960,C16Co4O17,0.121212121,8,8c_Co_1_Ch,8,O:C(:O)C#CC(:O):O,1
SR_bon_v1-8c_Co_2_Ch_v2-8c_Co_1_Ch_1B_2Br_Ch_1x1x1,0.1388,0.7353,0.872841,1896.54,1655.38,27.72768,7.65357,194323.7676,,,,5292,,1200,1200,960,Br40C192Cl4Co20H72N96O17,0.047505938,8,"8c_Co_1_Ch,8c_Co_2_Ch","22,19",BrC1:C:C(C2C:N:N:N:2):C(Br):C:C:1C1C:N:N:N:1___O:C(:O)C1:C:C(Br):C(:C:C:1Br)C1C:N:N:N:1,1
SR_bpq_v1-6c_Ni_1_Ch_v2-4c_pyrene_Ch_1B_2DoU_Ch_ntn_edge_1x2x1,0.1082,0.89394,0.243191,5596,1360.9,25.92952,24.17783,67940.80108,,,,960,,144,144,96,C31H20Ni2O7,0.034482759,6,6c_Ni_1_Ch,"6,106",O:C(:O)C(:O):O___O:C(:O)C=CC1:C:C:C(C=CC2:C:C(C=CC3:C:C:C(C=CC(:O):O):C:C:3):C3:C:C:C4:C(C=CC5:C:C:C(C=CC(:O):O):C:C:5):C:C(C=CC5:C:C:C(C=CC(:O):O):C:C:5):C5:C:C:C:2:C:3:C:5:4):C:C:1,1
SR_bpq_v1-6c_Ni_1_Ch_v2-4c_pyrene_Ch_ntn_edge_2B_2CN_Ch_1x2x1,0.08792,0.84576,0.353923,4307.19,1524.42,22.48374,19.89751,65329.68948,,,,1152,,144,144,96,C43H12N8Ni2O7,0.028571429,6,6c_Ni_1_Ch,"130,6",N#CC1:C:C(:C(C#N):C:C:1C(:O):O)C1:C:C(C#N):C(:C:C:1C#N)C1:C:C(C2:C:C(C#N):C(:C:C:2C#N)C2:C:C(C#N):C(:C:C:2C#N)C(:O):O):C2:C:C:C3:C(:C:C(C4:C:C(C#N):C(:C:C:4C#N)C4:C:C(C#N):C(:C:C:4C#N)C(:O):O):C4:C:C:C:1:C:2:C:4:3)C1:C:C(C#N):C(:C:C:1C#N)C1:C:C(C#N):C(:C:C:1C#N)C(:O):O___O:C(:O)C(:O):O,1
SR_bpj_v1-3c_Cu_imadazoline_Ch_v2-3c_Cu_imadazoline_Ch_2TrU_Ch_1TrU_Ch_ntn_edge_1x1x2,0.08052,0.97056,0.0966008,6099.73,589.239,47.48542,47.00705,175281.1035,,,,648,,144,144,144,C4Cu1H2N2,0.125,3,3c_Cu_imadazoline_Ch,"16,18,14",C(#CC1:C:N:N:C:1)C1:C:N:N:C:1___C(C#CC1:C:N:N:C:1)#CC1:C:N:N:C:1___C1:N:N:C:C:1C1:C:N:N:C:1,1
SR_bon_v1-8c_Co_1_Ch_v2-8c_Co_1_Ch_1B_2SH_Ch_1x1x1,0.19563,0.63074,1.02225,1128.86,1153.98,21.012,4.80329,113525.114,,,,4620,,1200,1200,960,C32Co4H16O17S8,0.054794521,8,8c_Co_1_Ch,18,O:C(:O)C1:C:C(S):C(:C:C:1S)C(:O):O,1
SR_bpq_v1-6c_Zr_1_Ch_v2-4c_pyrene_Ch_1B_4F_Ch_1x1x1,0.08733,0.83102,0.493738,2869.66,1416.86,15.40212,13.19963,28144.62662,,,,552,,192,192,48,C26F10H14O16Zr3,0.045454545,6,6c_Zr_1_Ch,"74,16",O:C(:O)C1:C(F):C(F):C(:C(F):C:1F)C1:C:C(C2:C(F):C(F):C(C(:O):O):C(F):C:2F):C2:C:C:C3:C(:C:C(C4:C(F):C(F):C(C(:O):O):C(F):C:4F):C4:C:C:C:1:C:2:C:4:3)C1:C(F):C(F):C(C(:O):O):C(F):C:1F___O:C(:O)C1:C(F):C(F):C(C(:O):O):C(F):C:1F,1
SR_bpt_v1-3c_triazine_Ch_v2-3c_Cu_imadazoline_Ch_1B_2CH3_Ch_ntn_edge_1x1x1,0.04703,0.95086,0.124885,6386.52,797.58,30.88567,27.61621,67669.9547,,,,472,,48,48,48,C53Cu6H44N15,0.053571429,3,3c_Cu_imadazoline_Ch,"30,104",CC1:C:C(C2:C:N:N:C:2):C(C):C:C:1C1:C:N:N:C:1___CC1:C:C(C2:N:C(:N:C(:N:2)C2:C:C(C):C(:C:C:2C)C2:C:N:N:C:2)C2:N:C(:N:C(:N:2)C2:C:C(C):C(:C:C:2C)C2:C:N:N:C:2)C2:C:C(C):C(:C:C:2C)C2:C:N:N:C:2):C(C):C:C:1C1:C:N:N:C:1,1
SR_brk_v1-3c_triazine_Ch_v2-3c_triazine_Ch_v3-6c_CdZn_1_Ch_ntn_edge_1B_4CN_Ch_1x2x2,0.10595,0.64828,1.05899,1443.94,1529.11,8.01785,4.56613,68607.00086,,,,2464,,512,512,384,C42Cd3N18O13Zn1,0.054794521,6,6c_CdZn_1_Ch,"57,15",N#CC1:C(C#N):C(C2:N:C(:N:C(:N:2)C2:C(C#N):C(C#N):C(C(:O):O):C(C#N):C:2C#N)C2:C(C#N):C(C#N):C(C(:O):O):C(C#N):C:2C#N):C(C#N):C(C#N):C:1C(:O):O___O:C(:O)C1:N:C(:N:C(:N:1)C(:O):O)C(:O):O,1
SR_bpr_v1-3c_Cu_imadazoline_Ch_v2-3c_B_Ch_1B_4H_Ch_1x1x1,0.09755,0.93298,0.166731,6657.13,1109.95,23.97013,19.56759,330911.9729,,,,3024,,288,288,288,C11Cu1H7N2,0.05,3,3c_Cu_imadazoline_Ch,60,C1:C:C(:C:C:C:1C1:C:N:N:C:1)C1:C:C(:C:C(:C:1)C1:C:C:C(:C:C:1)C1:C:N:N:C:1)C1:C:C:C(:C:C:1)C1:C:N:N:C:1,1
SR_brk_v1-3c_triazine_Ch_v2-3c_pyrrole_Ch_v3-6c_Zn_1_Ch_1B_2furan_Ch_1x1x1,0.05737,0.91112,0.234578,5657.77,1327.19,22.84535,18.24084,91774.80818,,,,1056,,128,128,96,C73H26N4O25Zn4,0.03125,6,6c_Zn_1_Ch,"64,63",O:C(:O)C1:C:C2:C:C3:O:C(:C:C:3:C:C:2:O:1)C1:C:C:C(C2:C:C3:C:C4:O:C(:C:C:4:C:C:3:O:2)C(:O):O):N:1C1:C:C2:C:C3:O:C(:C:C:3:C:C:2:O:1)C(:O):O___O:C(:O)C1:C:C2:C:C3:O:C(:C:C:3:C:C:2:O:1)C1:N:C(:N:C(:N:1)C1:C:C2:C:C3:O:C(:C:C:3:C:C:2:O:1)C(:O):O)C1:C:C2:C:C3:O:C(:C:C:3:C:C:2:O:1)C(:O):O,1
SR_bon_v1-8c_Co_1_Ch_v2-8c_Co_1_Ch_1B_4CN_Ch_1x1x1,0.20691,0.56716,1.12359,762.748,857.013,20.2224,5.57672,116025.5699,,,,5100,,1200,1200,960,C48Co4N16O17,0.049382716,8,8c_Co_1_Ch,20,N#CC1:C(C#N):C(C(:O):O):C(C#N):C(C#N):C:1C(:O):O,1
SR_bon_v1-8c_Co_1_Ch_v2-8c_Co_2_Ch_1B_2OH_Ch_ntn_edge_1x1x1,0.20021,0.61976,1.10892,1064.97,1180.97,19.36137,4.13249,81221.24195,,,,3756,,1200,1200,960,C120Cl1Co20H56N24O92,0.068259386,8,"8c_Co_1_Ch,8c_Co_2_Ch","18,9",O:C(:O)C1:C:C(O):C(:C:C:1O)C(:O):O___O:C(:O)C1C:N:N:N:1,1
SR_bpq_v1-6c_Ni_1_Ch_v2-4c_pyrene_Ch_1B_2Br_Ch_ntn_edge_1x2x1,0.10974,0.80534,0.652152,2466.45,1608.5,15.73095,14.0235,33951.12275,,,,704,,144,144,96,Br4C23H8Ni2O7,0.047619048,6,6c_Ni_1_Ch,"6,74",O:C(:O)C(:O):O___O:C(:O)C1:C:C(Br):C(:C:C:1Br)C1:C:C(C2:C:C(Br):C(:C:C:2Br)C(:O):O):C2:C:C:C3:C(:C:C(C4:C:C(Br):C(:C:C:4Br)C(:O):O):C4:C:C:C:1:C:2:C:4:3)C1:C:C(Br):C(:C:C:1Br)C(:O):O,1
SR_brk_v1-3c_triazine_Ch_v2-3c_B_Ch_v3-6c_CdZn_1_Ch_ntn_edge_1B_2NH2_Ch_1x1x2,0.1326,0.70322,0.921968,2474.68,2281.57,8.02499,4.7507,33266.67025,,,,1280,,256,256,192,C33Cd3H21N9O13Zn1,0.052631579,6,6c_CdZn_1_Ch,"60,15",NC1:C:C(C2:C:C(:C:C(:C:2)C2:C:C(N):C(:C:C:2N)C(:O):O)C2:C:C(N):C(:C:C:2N)C(:O):O):C(N):C:C:1C(:O):O___O:C(:O)C1:N:C(:N:C(:N:1)C(:O):O)C(:O):O,1
SR_bon_v1-8c_Co_1_Ch_v2-8c_Co_1_Ch_1B_4Br_Ch_1x1x1,0.16039,0.55972,1.85048,494.211,914.526,20.81509,5.38317,116871.8291,,,,4140,,1200,1200,960,Br16C32Co4O17,0.061538462,8,8c_Co_1_Ch,16,O:C(:O)C1:C(Br):C(Br):C(C(:O):O):C(Br):C:1Br,1
SR_bpt_v1-3c_Cu_imadazoline_Ch_v2-3c_pyrrole_Ch_2B_4CN_Ch_1x1x1,0.10017,0.92652,0.16248,5503.99,894.289,33.46609,26.22687,85948.3956,,,,656,,24,24,24,C107Cu3H10N44,0.01863354,3,3c_Cu_imadazoline_Ch,"280,42",N#CC1:C(C#N):C(:C(C#N):C(C#N):C:1C1:C:N:N:C:1)C1:C(C#N):C(C#N):C(:C(C#N):C:1C#N)N1:C2:C:C:C:1C1:C(C#N):C(C#N):C(:C(C#N):C:1C#N)C1:C(C#N):C(C#N):C(:C(C#N):C:1C#N)C1:C:C:C(C3:C(C#N):C(C#N):C(:C(C#N):C:3C#N)C3:C(C#N):C(C#N):C(:C(C#N):C:3C#N)C3:C:C:C(C4:C(C#N):C(C#N):C(:C(C#N):C:4C#N)C4:C(C#N):C(C#N):C(:C(C#N):C:4C#N)C4:C:C:C(C5:C(C#N):C(C#N):C(:C(C#N):C:5C#N)C5:C(C#N):C(C#N):C2:C(C#N):C:5C#N):N:4C2:C(C#N):C(C#N):C(:C(C#N):C:2C#N)C2:C(C#N):C(C#N):C(C4:C:N:N:C:4):C(C#N):C:2C#N):N:3C2:C(C#N):C(C#N):C(:C(C#N):C:2C#N)C2:C(C#N):C(C#N):C(C3:C:N:N:C:3):C(C#N):C:2C#N):N:1C1:C(C#N):C(C#N):C(:C(C#N):C:1C#N)C1:C(C#N):C(C#N):C(C2:C:N:N:C:2):C(C#N):C:1C#N___N#CC1:C(C#N):C(:C(C#N):C(C#N):C:1C1:C:N:N:C:1)C1:C(C#N):C(C#N):C(C2:C:N:N:C:2):C(C#N):C:1C#N,1
SR_bpj_v1-3c_Cu_imadazoline_Ch_v2-3c_Cu_imadazoline_Ch_2TrU_Ch_1x1x1,0.05929,0.98034,0.0596095,6874.24,409.77,54.26274,53.0822,154068.8907,,,,360,,72,72,72,C5Cu1H2N2,0.111111111,3,3c_Cu_imadazoline_Ch,18,C(C#CC1:C:N:N:C:1)#CC1:C:N:N:C:1,1
SR_bpv_v1-3c_triazine_Ch_v2-3c_Cu_imadazoline_Ch_1TrU_Ch_1x2x1,0.23101,0.93578,0.172987,6616.94,1144.64,21.44794,18.26742,100298.94,,,,720,,96,96,96,C8Cu1H2N4,0.071428571,3,3c_Cu_imadazoline_Ch,"16,136",C(#CC1:C:N:N:C:1)C1:C:N:N:C:1___C(#CC1:N:C2C#CC3:N:C(C#CC4:C:N:N:C:4):N:C(C#CC4:N:C(C#CC5:C:N:N:C:5):N:C(C#CC5:N:C(C#CC6:C:N:N:C:6):N:C(C#CC6:N:C(C#CC7:C:N:N:C:7):N:C(C#CC7:N:C(C#CC8:C:N:N:C:8):N:C(C#CC8:N:C(C#CC9:C:N:N:C:9):N:C(C#CC9:N:C(C#CC%10:C:N:N:C:%10):N:C(C#CC(:N:1):N:2):N:9):N:8):N:7):N:6):N:5):N:4):N:3)C1:C:N:N:C:1,1
SR_bpj_v1-3c_Cu_imadazoline_Ch_v2-3c_Cu_imadazoline_Ch_1B_4CN_Ch_ntn_edge_1x1x1,0.05755,0.95548,0.132887,5823.52,773.87,32.83967,30.77637,75913.48612,,,,400,,72,72,72,C47Cu9H18N26,0.098901099,3,3c_Cu_imadazoline_Ch,"14,28",C1:N:N:C:C:1C1:C:N:N:C:1___N#CC1:C(C#N):C(C2:C:N:N:C:2):C(C#N):C(C#N):C:1C1:C:N:N:C:1,1
SR_brk_v1-3c_triazine_Ch_v2-3c_B_Ch_v3-6c_Zn_1_Ch_1B_2F_Ch_ntn_edge_1x2x2,0.11765,0.69406,0.916441,2054.31,1882.65,7.88764,5.8942,59785.71521,,,,2176,,512,512,384,C33F6H9N3O13Zn4,0.0625,6,6c_Zn_1_Ch,"18,45",O:C(:O)C1:C:C(:C:C(:C:1)C(:O):O)C(:O):O___O:C(:O)C1:C:C(F):C(:C:C:1F)C1:N:C(:N:C(:N:1)C1:C:C(F):C(:C:C:1F)C(:O):O)C1:C:C(F):C(:C:C:1F)C(:O):O,1
SR_bne_v1-4c_pyrene_Ch_v2-4c_Cd_1_Ch_ntn_edge_1DoU_Ch_2x1x6,0.33673,0.51654,1.43964,583.177,839.567,7.58825,6.05522,42090.34393,,,,2352,,792,792,744,C22Cd2H9O16,0.042553191,4,4c_Cd_1_Ch,"34,10,34,10",O:C(:O)C1:C:C(C(:O):O):C2:C:C:C3:C(:C:C(C(:O):O):C4:C:C:C:1:C:2:C:4:3)C(:O):O___O:C(:O)C=CC(:O):O___OC(:O)C1:C:C(C(:O):O):C2:C:C:C3:C(:C:C(C(:O):O):C4:C:C:C:1:C:2:C:4:3)C(:O):O___OC(:O)C=CC(:O):O,1
SR_bpq_v1-6c_Zr_1_Ch_v2-4c_B_Ch_2B_2NH2_Ch_ntn_edge_1x2x1,0.08703,0.86134,0.351074,3304.48,1160.12,23.47394,20.41293,78582.7093,,,,1488,,384,384,96,C30H36N8O16Zr3,0.033333333,6,6c_Zr_1_Ch,"132,6",NC1:C:C(:C(N):C:C:1C(:O):O)C1:C:C(N):C(:C:C:1N)C1:C:C(C2:C:C(N):C(:C:C:2N)C2:C:C(N):C(:C:C:2N)C(:O):O):C(:C:C:1C1:C:C(N):C(:C:C:1N)C1:C:C(N):C(:C:C:1N)C(:O):O)C1:C:C(N):C(:C:C:1N)C1:C:C(N):C(:C:C:1N)C(:O):O___O:C(:O)C(:O):O,1
SR_bpq_v1-6c_Zr_1_Ch_v2-4c_B_Ch_2B_2OH_Ch_1x1x1,0.08433,0.8727,0.3254,3895.75,1267.68,18.25872,15.60673,47123.77687,,,,776,,192,192,48,C36H32O26Zr3,0.031914894,6,6c_Zr_1_Ch,"30,116",O:C(:O)C1:C:C(O):C(:C:C:1O)C1:C:C(O):C(:C:C:1O)C(:O):O___O:C(:O)C1:C:C(O):C(:C:C:1O)C1:C:C(O):C(:C:C:1O)C1:C:C(C2:C:C(O):C(:C:C:2O)C2:C:C(O):C(:C:C:2O)C(:O):O):C(:C:C:1C1:C:C(O):C(:C:C:1O)C1:C:C(O):C(:C:C:1O)C(:O):O)C1:C:C(O):C(:C:C:1O)C1:C:C(O):C(:C:C:1O)C(:O):O,1
SR_bne_v1-4c_pyrene_Ch_v2-4c_Cd_1_Ch_1B_2SH_Ch_1x1x2,0.06479,0.85796,0.372929,4520.6,1685.86,14.36905,11.59461,51154.06987,,,,776,,128,128,128,C46Cd2H23O16S10,0.021052632,4,4c_Cd_1_Ch,"18,82",O:C(:O)C1:C:C(S):C(:C:C:1S)C(:O):O___O:C(:O)C1:C:C(S):C(:C:C:1S)C1:C:C(C2:C:C(S):C(:C:C:2S)C(:O):O):C2:C:C:C3:C(:C:C(C4:C:C(S):C(:C:C:4S)C(:O):O):C4:C:C:C:1:C:2:C:4:3)C1:C:C(S):C(:C:C:1S)C(:O):O,1
SR_bon_v1-8c_Co_1_Ch_v2-8c_Co_1_Ch_1DoU_Ch_1TrU_Ch_1x1x1,0.18039,0.67956,1.00215,1580.54,1583.94,20.09138,7.06253,69904.53476,,,,2412,,1200,1200,960,C80Co20H16O85,0.110497238,8,8c_Co_1_Ch,"8,10",O:C(:O)C#CC(:O):O___O:C(:O)C=CC(:O):O,1
SR_brk_v1-3c_B_Ch_v2-3c_triazine_Ch_v3-6c_Zn_1_Ch_1B_2NO2_Ch_ntn_edge_1x2x2,0.12036,0.66156,0.973074,1729.07,1682.52,7.28856,4.48128,65169.82958,,,,2560,,512,512,384,C33H9N9O25Zn4,0.052631579,6,6c_Zn_1_Ch,"57,18",O:C(:O)C1:C:C(:C(:C:C:1N(:O):O)C1:N:C(:N:C(:N:1)C1:C:C(:C(:C:C:1N(:O):O)C(:O):O)N(:O):O)C1:C:C(:C(:C:C:1N(:O):O)C(:O):O)N(:O):O)N(:O):O___O:C(:O)C1:C:C(:C:C(:C:1)C(:O):O)C(:O):O,1
SR_brk_v1-3c_B_Ch_v2-3c_triazine_Ch_v3-6c_CdZn_1_Ch_1DoU_Ch_ntn_edge_1x2x2,0.11648,0.74488,0.914101,2499.25,2284.56,9.1115,6.50389,53127.75851,,,,1600,,512,512,384,C21Cd3H9N3O13Zn1,0.086956522,6,6c_CdZn_1_Ch,"15,30",O:C(:O)C1:N:C(:N:C(:N:1)C(:O):O)C(:O):O___O:C(:O)C=CC1:C:C(C=CC(:O):O):C:C(C=CC(:O):O):C:1,1
SR_bpq_v1-6c_Zr_1_Ch_v2-4c_pyrene_Ch_2B_2CF3_Ch_1x1x1,0.06025,0.87312,0.352427,3160.11,1113.71,22.09453,20.29768,65450.93695,,,,992,,192,192,48,C51F30H24O16Zr3,0.024793388,6,6c_Zr_1_Ch,"38,162",O:C(:O)C1:C:C(:C(:C:C:1C(F)(F)F)C1:C:C(:C(:C:C:1C(F)(F)F)C(:O):O)C(F)(F)F)C(F)(F)F___O:C(:O)C1:C:C(:C(:C:C:1C(F)(F)F)C1:C:C(:C(:C:C:1C(F)(F)F)C1:C:C(C2:C:C(:C(:C:C:2C(F)(F)F)C2:C:C(:C(:C:C:2C(F)(F)F)C(:O):O)C(F)(F)F)C(F)(F)F):C2:C:C:C3:C(:C:C(C4:C:C(:C(:C:C:4C(F)(F)F)C4:C:C(:C(:C:C:4C(F)(F)F)C(:O):O)C(F)(F)F)C(F)(F)F):C4:C:C:C:1:C:2:C:4:3)C1:C:C(:C(:C:C:1C(F)(F)F)C1:C:C(:C(:C:C:1C(F)(F)F)C(:O):O)C(F)(F)F)C(F)(F)F)C(F)(F)F)C(F)(F)F,1
SR_bpr_v1-3c_Cu_imadazoline_Ch_v2-3c_Cu_imadazoline_Ch_1TrU_Ch_1x1x1,0.09019,0.9571,0.136453,6238.93,851.32,31.1875,22.81792,496344.7171,,,,2592,,576,576,576,C4Cu1H2N2,0.125,3,3c_Cu_imadazoline_Ch,16,C(#CC1:C:N:N:C:1)C1:C:N:N:C:1,1
SR_bon_v1-8c_Co_2_Ch_v2-8c_Co_1_Ch_1B_4Br_Ch_1x1x1,0.1311,0.69236,1.18392,1144.27,1354.73,27.93759,6.35025,196383.1159,,,,5292,,1200,1200,960,Br80C192Cl4Co20H32N96O17,0.047505938,8,"8c_Co_1_Ch,8c_Co_2_Ch","22,19",BrC1:C(Br):C(C2C:N:N:N:2):C(Br):C(Br):C:1C1C:N:N:N:1___O:C(:O)C1:C(Br):C(Br):C(C2C:N:N:N:2):C(Br):C:1Br,1
SR_brk_v1-3c_B_Ch_v2-3c_B_Ch_v3-6c_Zn_1_Ch_ntn_edge_1x2x2,0.20563,0.71274,0.958731,2094.32,2007.89,8.32564,6.37988,38343.05574,,,,1312,,512,512,384,C18H6O13Zn4,0.108108108,6,6c_Zn_1_Ch,18,O:C(:O)C1:C:C(:C:C(:C:1)C(:O):O)C(:O):O,1
SR_bps_v1-3c_Cu_imadazoline_Ch_v2-3c_pyrrole_Ch_ntn_edge_1B_2NH2_Ch_1x1x1,0.07695,0.9118,0.277159,4997.36,1385.06,20.63193,15.51955,42990.93866,,,,496,,96,96,96,C25Cu6H17N14,0.107142857,3,3c_Cu_imadazoline_Ch,"14,56",C1:N:N:C:C:1C1:C:N:N:C:1___NC1:C:C(:C(N):C:C:1C1:C:C:C(C2:C:N:N:C:2):N:1C1:C:N:N:C:1)C1:C:C:C(C2:C:N:N:C:2):N:1C1:C:N:N:C:1,1
SR_bpv_v1-3c_B_Ch_v2-3c_Cu_imadazoline_Ch_2B_1TrU_Ch_ntn_edge_1x1x1,0.07343,0.97304,0.0557655,8197.67,457.147,46.00571,35.25005,296315.2121,,,,1040,,48,48,48,C77Cu3H44N6,0.023622047,3,3c_Cu_imadazoline_Ch,"240,14",C(#CC1:C:C:C(:C:C:1)C1:C:C2:C:C(:C:1)C1:C:C:C(C#CC3:C:C:C(:C:C:3)C3:C:C(:C:C(:C:3)C3:C:C:C(C#CC4:C:C:C(:C:C:4)C4:C:C(:C:C(:C:4)C4:C:C:C(C#CC5:C:C:C(:C:C:5)C5:C:C(:C:C(:C:5)C5:C:C:C(C#CC6:C:C:C2:C:C:6):C:C:5)C2:C:C:C(C#CC5:C:C:C(:C:C:5)C5:C:N:N:C:5):C:C:2):C:C:4)C2:C:C:C(C#CC4:C:C:C(:C:C:4)C4:C:N:N:C:4):C:C:2):C:C:3)C2:C:C:C(C#CC3:C:C:C(:C:C:3)C3:C:N:N:C:3):C:C:2):C:C:1)C1:C:C:C(:C:C:1)C1:C:N:N:C:1___C1:N:N:C:C:1C1:C:N:N:C:1,1
SR_bpq_v1-6c_Zr_1_Ch_v2-4c_B_Ch_1B_2CH3_Ch_ntn_edge_1x2x2,0.1341,0.78516,0.570974,2611.43,1491.06,14.12945,12.58966,76510.48218,,,,2208,,768,768,192,C22H28O16Zr3,0.045454545,6,6c_Zr_1_Ch,"84,6",CC1:C:C(:C(C):C:C:1C(:O):O)C1:C:C(C2:C:C(C):C(:C:C:2C)C(:O):O):C(:C:C:1C1:C:C(C):C(:C:C:1C)C(:O):O)C1:C:C(C):C(:C:C:1C)C(:O):O___O:C(:O)C(:O):O,1
SR_bpi_v1-3c_Cu_imadazoline_Ch_v2-3c_B_Ch_1B_4F_Ch_2x1x1,0.08862,0.92544,0.211583,5501.29,1163.98,20.96646,16.59962,114029.6713,,,,1008,,96,96,96,C11Cu1F4H3N2,0.05,3,3c_Cu_imadazoline_Ch,"96,24",FC1:C(F):C(C2:C:C(:C:C(:C:2)C2:C(F):C(F):C(C3:C:C(:C:C(:C:3)C3:C(F):C(F):C(C4:C:N:N:C:4):C(F):C:3F)C3:C(F):C(F):C(C4:C:N:N:C:4):C(F):C:3F):C(F):C:2F)C2:C(F):C(F):C(C3:C:N:N:C:3):C(F):C:2F):C(F):C(F):C:1C1:C:N:N:C:1___FC1:C(F):C(C2:C:N:N:C:2):C(F):C(F):C:1C1:C:N:N:C:1,1
SR_bpl_v1-3c_Cu_imadazoline_Ch_v2-3c_B_Ch_ntn_edge_2B_2NO2_Ch_1x1x1,0.12237,0.91672,0.23245,5686.22,1321.76,24.13466,17.2781,90993.04755,,,,976,,96,96,96,C27Cu3H13N10O8,0.051724138,3,3c_Cu_imadazoline_Ch,"14,176",C1:N:N:C:C:1C1:C:N:N:C:1___O:N(:O)C1:C:C2C3:C:C(:C(:C:C:3N(:O):O)C3:C:C(:C:C(:C:3)C3:C:C(:C(:C:C:3N(:O):O)C3:C:C(:C(:C:C:3N(:O):O)C3:C:C(:C:C(:C:3)C3:C:C(:C(:C:C:3N(:O):O)C3:C:C(:C(:C:C:3N(:O):O)C3:C:C(:C:C(:C:3)C3:C:C(:C(:C:C:3N(:O):O)C3:C:C(:C(:C:C:3N(:O):O)C3:C:C(:C:C(:C:3)C:1:C:C:2N(:O):O)C1:C:N:N:C:1)N(:O):O)N(:O):O)C1:C:N:N:C:1)N(:O):O)N(:O):O)C1:C:N:N:C:1)N(:O):O)N(:O):O)C1:C:N:N:C:1)N(:O):O,1
SR_brk_v1-3c_triazine_Ch_v2-3c_pyrrole_Ch_v3-6c_CdZn_1_Ch_4B_fused_8H_Ch_1x1x1,0.05446,0.90166,0.250194,5397.29,1350.37,21.64691,19.29008,107585.5094,,,,1440,,128,128,96,C109Cd3H50N4O13Zn1,0.022727273,6,6c_CdZn_1_Ch,"88,87",O:C(:O)C1:C:C2:C:C:C3:C:C(:C:C4:C:C:C(:C:1):C:2:C:3:4)C1:C:C:C(C2:C:C3:C:C:C4:C:C(:C:C5:C:C:C(:C:2):C:3:C:4:5)C(:O):O):N:1C1:C:C2:C:C:C3:C:C(:C:C4:C:C:C(:C:1):C:2:C:3:4)C(:O):O___O:C(:O)C1:C:C2:C:C:C3:C:C(:C:C4:C:C:C(:C:1):C:2:C:3:4)C1:N:C(:N:C(:N:1)C1:C:C2:C:C:C3:C:C(:C:C4:C:C:C(:C:1):C:2:C:3:4)C(:O):O)C1:C:C2:C:C:C3:C:C(:C:C4:C:C:C(:C:1):C:2:C:3:4)C(:O):O,1