name,k,VF,density,ASA_grav,ASA_vol,LPD,PLD,volume,,,,N_atoms,,N_metal_containing_bonds,N_metal_nonmetal_bonds,N_metal_linker_bonds,formula,metal_nonmetal_ratio,metal_node_connectivity,metal_node_name,N_atoms_per_linker,linker_SMILES,N_ccs
SR_dnl_v1-4c_porphyrin_Ch_v2-6c_CdZn_1_Ch_v3-3c_triazine_Ch_1B_2CN_Ch_ntn_edge_1x1x1,0.14729,0.64502,0.883628,1652.4,1460.1,9.46049,5.76919,75604.41224,,,,3344,,256,256,192,C120Cd3H42N30O13Zn1,0.019512195,6,6c_CdZn_1_Ch,"408,408",N#CC1:C:C2:C(C#N):C:C:1C1:N:C3:N:C(:N:1)C1:C:C(C#N):C(:C:C:1C#N)C1:C4:C:C:C(:N:4):C(C(:O):O):C4:C:C:C(:[NH]:4):C(C(:O):O):C4:C:C:C(:N:4):C(C4:C:C(C#N):C(:C:C:4C#N)C4:N:C5:N:C(:N:4)C4:C:C(C#N):C(:C:C:4C#N)C4:C6:C:C:C(:N:6):C(C(:O):O):C6:C:C:C(:[NH]:6):C(C(:O):O):C6:C:C:C(:N:6):C(C6:C:C(C#N):C(:C:C:6C#N)C6:N:C(:N:C(:N:6)C6:C:C(C#N):C(:C:C:6C#N)C6:C7:C:C:C(:N:7):C(C(:O):O):C7:C:C:C(:[NH]:7):C(C(:O):O):C7:C:C:C(:N:7):C(C7:C:C(C#N):C(:C:C:7C#N)C7:N:C(:N:C(:N:7)C7:C:C(C#N):C(:C:C:7C#N)C7:C8:C:C:C(:N:8):C(C(:O):O):C8:C:C:C(:[NH]:8):C(C(:O):O):C8:C:C:C(:N:8):C(C8:C:C(C#N):C5:C:C:8C#N):C5:C:C:C:7:[NH]:5)C5:C:C(C#N):C(:C:C:5C#N)C5:C7:C:C:C(:N:7):C(C(:O):O):C7:C:C:C(:[NH]:7):C(C(:O):O):C7:C:C:C(:N:7):C2:C2:C:C:C:5:[NH]:2):C2:C:C:C:6:[NH]:2)C2:C:C(C#N):C(:C:C:2C#N)C2:C5:C:C:C(:N:5):C(C(:O):O):C5:C:C:C(:[NH]:5):C(C(:O):O):C5:C:C:C(:N:5):C(C5:C:C(C#N):C3:C:C:5C#N):C3:C:C:C:2:[NH]:3):C2:C:C:C:4:[NH]:2):C2:C:C:C:1:[NH]:2___N#CC1:C:C2:C(C#N):C:C:1C1:N:C3:N:C(:N:1)C1:C:C(C#N):C(:C:C:1C#N)C1:C4:C:C:C(:N:4):C(C(:O):O):C4:C:C:C(:[NH]:4):C(C(:O):O):C4:C:C:C(:N:4):C(C4:C:C(C#N):C(:C:C:4C#N)C4:N:C5:N:C(:N:4)C4:C:C(C#N):C(:C:C:4C#N)C4:C6:C:C:C(:N:6):C(C(:O):O):C6:C:C:C(:[NH]:6):C(C(:O):O):C6:C:C:C(:N:6):C(C6:C:C(C#N):C(:C:C:6C#N)C6:N:C(:N:C(:N:6)C6:C:C(C#N):C(:C:C:6C#N)C6:C7:C:C:C(:N:7):C(C(:O):O):C7:C:C:C(:[NH]:7):C(C(:O):O):C7:C:C:C(:N:7):C(C7:C:C(C#N):C(:C:C:7C#N)C7:N:C(:N:C(:N:7)C7:C:C(C#N):C(:C:C:7C#N)C7:C8:C:C:C(:N:8):C(C(:O):O):C8:C:C:C(:[NH]:8):C(C(:O):O):C8:C:C:C(:N:8):C(C8:C:C(C#N):C5:C:C:8C#N):C5:C:C:C:7:[NH]:5)C5:C:C(C#N):C(:C:C:5C#N)C5:C7:C:C:C(:N:7):C2:C2:C:C:C(:[NH]:2):C(C(:O):O):C2:C:C:C(:N:2):C(C(:O):O):C2:C:C:C:5:[NH]:2):C2:C:C:C:6:[NH]:2)C2:C:C(C#N):C(:C:C:2C#N)C2:C5:C:C:C(:N:5):C(C5:C:C(C#N):C3:C:C:5C#N):C3:C:C:C(:[NH]:3):C(C(:O):O):C3:C:C:C(:N:3):C(C(:O):O):C3:C:C:C:2:[NH]:3):C2:C:C:C:4:[NH]:2):C2:C:C:C:1:[NH]:2,1
SR_dnz_v1-4c_bicyclooctane_Ch_v2-6c_CdZn_1_Ch_v3-3c_triazine_Ch_ntn_edge_1x1x1,0.49728,0.44572,1.85097,0,0,6.75238,2.52945,16353.97643,,,,1136,,256,256,192,C36Cd3H12N6O13Zn1,0.059701493,6,6c_CdZn_1_Ch,132,O:C(:O)C1=CC2(C=C3C4:N:C5:N:C(:N:4)C4=CC6(C=C(C(:O):O)C4C(=C6)C4:N:C6:N:C(:N:4)C4=CC7(C=C(C(:O):O)C4C(=C7)C4:N:C(:N:C(:N:4)C4=CC7(C=C(C(:O):O)C4C(=C7)C4:N:C(:N:C(:N:4)C4=CC7(C=C(C(:O):O)C4C6=C7)C(:O):O)C(=C2)C13)C(:O):O)C1=CC2(C=C(C(:O):O)C1C5=C2)C(:O):O)C(:O):O)C(:O):O)C(:O):O,1
SR_ecv_v1-8c_Mn_1_Ch_1B_4H_Ch_2x2x1,0.53583,0.76622,0.591056,3498.22,2067.65,11.50459,8.83245,198494.0523,,,,5440,,1280,1280,1024,C32Cl1H16Mn4N32,0.049382716,8,8c_Mn_1_Ch,20,C1:C:C(:C:C:C:1C1:N:N:N:N:1)C1:N:N:N:N:1,1
SR_eci_v1-8c_Mn_1_Ch_1B_4H_Ch_1x1x1,0.44921,0.78134,0.558406,3745.04,2091.25,12.95437,9.64988,26306.67637,,,,680,,160,160,128,C32Cl1H16Mn4N32,0.049382716,8,8c_Mn_1_Ch,20,C1:C:C(:C:C:C:1C1:N:N:N:N:1)C1:N:N:N:N:1,1
SR_dpd_v1-4c_bicyclooctane_Ch_v2-4c_Ni_1_Ch_v3-4c_1anC_Ch_2B_4F_Ch_1x1x1,0.06524,0.8962,0.2873,4209.47,1209.38,34.12225,17.87188,278854.4439,,,,3288,,216,192,192,C237F128H16Ni6O24,0.014814815,4,4c_Ni_1_Ch,405,O:C(:O)C1:C(F):C(F):C(:C(F):C:1F)C1:C(F):C(F):C(C2=CC3(C=C(C4:C(F):C(F):C(:C(F):C:4F)C4:C(F):C(F):C(C(:O):O):C(F):C:4F)C2C(=C3)C2:C(F):C(F):C(:C(F):C:2F)C2:C(F):C(F):C(C(:O):O):C(F):C:2F)C2:C(F):C(F):C(:C(F):C:2F)C2:C(F):C(F):C(:C(F):C:2F)C(C2:C(F):C(F):C(:C(F):C:2F)C2:C(F):C(F):C(:C(F):C:2F)C23C=C(C4:C(F):C(F):C(:C(F):C:4F)C4:C(F):C(F):C(C(:O):O):C(F):C:4F)C(C(=C2)C2:C(F):C(F):C(:C(F):C:2F)C2:C(F):C(F):C(C(:O):O):C(F):C:2F)C(=C3)C2:C(F):C(F):C(:C(F):C:2F)C2:C(F):C(F):C(C(:O):O):C(F):C:2F)(C2:C(F):C(F):C(:C(F):C:2F)C2:C(F):C(F):C(:C(F):C:2F)C23C=C(C4:C(F):C(F):C(:C(F):C:4F)C4:C(F):C(F):C(C(:O):O):C(F):C:4F)C(C(=C2)C2:C(F):C(F):C(:C(F):C:2F)C2:C(F):C(F):C(C(:O):O):C(F):C:2F)C(=C3)C2:C(F):C(F):C(:C(F):C:2F)C2:C(F):C(F):C(C(:O):O):C(F):C:2F)C2:C(F):C(F):C(:C(F):C:2F)C2:C(F):C(F):C(:C(F):C:2F)C23C=C(C4:C(F):C(F):C(:C(F):C:4F)C4:C(F):C(F):C(C(:O):O):C(F):C:4F)C(C(=C2)C2:C(F):C(F):C(:C(F):C:2F)C2:C(F):C(F):C(C(:O):O):C(F):C:2F)C(=C3)C2:C(F):C(F):C(:C(F):C:2F)C2:C(F):C(F):C(C(:O):O):C(F):C:2F):C(F):C:1F,1
SR_dmg_v1-3c_Cu_imadazoline_Ch_v2-4c_1anC_Ch_v3-3c_pyrrole_Ch_1B_2NO2_Ch_ntn_edge_2x2x1,0.13989,0.76492,0.623069,3363.59,2095.75,11.70873,10.5398,21020.87016,,,,592,,48,48,48,C32Cu3H14N13O12,0.042253521,3,3c_Cu_imadazoline_Ch,"228,28",O:N(:O)C1:C:C(:C(:C:C:1C1:C:N:N:C:1)N(:O):O)C1(C2:C:C(:C(:C:C:2N(:O):O)C2:C:N:N:C:2)N(:O):O)C2:C:C:C3C4:C:C(:C(:C:C:4N(:O):O)C4:C:C:C5:N:4C(C4:C:C(:C(:C:C:4N(:O):O)C4:C:N:N:C:4)N(:O):O)(C4:C:C(:C(:C:C:4N(:O):O)C4:C:N:N:C:4)N(:O):O)N4:C(:C:C:C:4C5(C4:C:C(:C(:C:C:4N(:O):O)C4:C:N:N:C:4)N(:O):O)C4:C:C(:C(:C:C:4N(:O):O)C4:C:N:N:C:4)N(:O):O)C4:C:C(:C(:C:C:4N(:O):O)C4:C:C:C1:N:4C(C1:C:C(:C(:C:C:1N(:O):O)C1:C:N:N:C:1)N(:O):O)(C1:C:C(:C(:C:C:1N(:O):O)C1:C:N:N:C:1)N(:O):O)N:3:2)N(:O):O)N(:O):O___O:N(:O)C1:C:C(C2:C:N:N:C:2):C(:C:C:1C1:C:N:N:C:1)N(:O):O,1
SR_dme_v1-4c_In_1_Ch_v2-3c_pyrrole_Ch_1B_2DoU_Ch_ntn_edge_1x1x2,0.10151,0.8908,0.270942,5355.91,1451.14,21.40827,19.15723,58659.67828,,,,768,,128,128,128,C47H30In2N1O16,0.021276596,4,4c_In_1_Ch,"44,24",O:C(:O)C1:C:C:C(C=CC2:C:C:C(C=CC3:C:C:C(C(:O):O):N:3C(:O):O):C:C:2):N:1C(:O):O___O:C(:O)C=CC1:C:C:C(C=CC(:O):O):C:C:1,1
SR_ecf_v1-8c_Mn_1_Ch_1B_2NO2_Ch_1x1x1,0.30684,0.76204,0.634208,2933.88,1860.69,16.65862,7.02124,26548.57131,,,,606,,120,120,96,C32Cl1H8Mn4N40O16,0.041237113,8,8c_Mn_1_Ch,24,O:N(:O)C1:C:C(C2:N:N:N:N:2):C(:C:C:1C1:N:N:N:N:1)N(:O):O,1
SR_epq_v1-4c_Ni_1_Ch_v2-6c_B_Ch_v3-3c_B_Ch_1TrU_Ch_ntn_edge_1x1x1,0.70368,0.719,0.758877,1576.53,1196.4,19.13238,11.34215,13434.44742,,,,408,,108,96,96,C11H1Ni1O4,0.0625,4,4c_Ni_1_Ch,384,O:C(:O)C#CC1:C(C#CC(:O):O):C2C3:C:C4:C:C(:C:3)C3:C(C#CC(:O):O):C(C#CC(:O):O):C(C5:C:C6:C:C(:C:5)C5:C(C#CC(:O):O):C(C#CC(:O):O):C(C7:C:C8:C:C(:C:7)C7:C(C#CC(:O):O):C(C#CC(:O):O):C(C9:C:C%10:C:C(:C:9)C9:C(C#CC(:O):O):C(C#CC(:O):O):C(C%11:C:C(:C:C(:C:%11)C%11:C(C#CC(:O):O):C(C#CC(:O):O):C6:C(C#CC(:O):O):C:%11C#CC(:O):O)C6:C(C#CC(:O):O):C(C#CC(:O):O):C(C%11:C:C(:C:C(:C:%11)C%11:C(C#CC(:O):O):C(C#CC(:O):O):C(C%12:C:C(:C:C(:C:%12)C%12:C(C#CC(:O):O):C(C#CC(:O):O):C%10:C(C#CC(:O):O):C:%12C#CC(:O):O)C%10:C(C#CC(:O):O):C(C#CC(:O):O):C(C%12:C:C(:C:C(:C:%12)C%12:C(C#CC(:O):O):C(C#CC(:O):O):C8:C(C#CC(:O):O):C:%12C#CC(:O):O)C8:C(C#CC(:O):O):C(C#CC(:O):O):C4:C(C#CC(:O):O):C:8C#CC(:O):O):C(C#CC(:O):O):C:%10C#CC(:O):O):C(C#CC(:O):O):C:%11C#CC(:O):O)C:1:C(C#CC(:O):O):C:2C#CC(:O):O):C(C#CC(:O):O):C:6C#CC(:O):O):C(C#CC(:O):O):C:9C#CC(:O):O):C(C#CC(:O):O):C:7C#CC(:O):O):C(C#CC(:O):O):C:5C#CC(:O):O):C(C#CC(:O):O):C:3C#CC(:O):O,1
SR_epq_v1-4c_Cu_1_Ch_v2-6c_B_Ch_v3-3c_Cu_imadazoline_Ch_1B_2furan_Ch_1x1x1,0.1539,0.87808,0.314388,4781.41,1503.22,36.16654,15.4153,99588.98352,,,,1584,,156,144,144,C19Cu1H7N1O5,0.03125,"3,4","3c_Cu_imadazoline_Ch,4c_Cu_1_Ch",128,O:C(:O)C1:C:C2:C:C3:O:C(:C:C:3:C:C:2:O:1)C1:C(C2:C:C3:C:C4:O:C(:C:C:4:C:C:3:O:2)C(:O):O):C(C2:C:C3:C:C4:O:C(:C:C:4:C:C:3:O:2)C2:C:N:N:C:2):C(C2:C:C3:C:C4:O:C(:C:C:4:C:C:3:O:2)C(:O):O):C(C2:C:C3:C:C4:O:C(:C:C:4:C:C:3:O:2)C(:O):O):C:1C1:C:C2:C:C3:O:C(:C:C:3:C:C:2:O:1)C1:C:N:N:C:1,1
SR_dnf_v1-6c_B_Ch_v2-6c_Mg_1_Ch_v3-3c_B_Ch_1B_4F_Ch_ntn_edge_1x1x1,0.32778,0.66892,0.828864,2047.22,1696.87,13.04787,6.52691,97811.825,,,,3744,,480,480,192,C22F8H4Mg1O4,0.026315789,6,6c_Mg_1_Ch,,None,1
SR_epq_v1-4c_Ni_1_Ch_v2-6c_B_Ch_v3-3c_B_Ch_1TrU_Ch_1DoU_Ch_1x1x1,0.56704,0.78146,0.559368,2694,1506.94,21.67235,12.8116,20081.2143,,,,504,,108,96,96,C13H3Ni1O4,0.05,4,4c_Ni_1_Ch,480,O:C(:O)C#CC1:C(C#CC(:O):O):C2C=CC3:C:C4C=CC5:C(C#CC(:O):O):C(C#CC(:O):O):C(C=CC6:C:C7C=CC8:C(C#CC(:O):O):C(C#CC(:O):O):C(C=CC9:C:C%10C=CC%11:C(C#CC(:O):O):C(C#CC(:O):O):C(C=CC%12:C:C(C=CC:1:C(C#CC(:O):O):C:2C#CC(:O):O):C:C(C=CC1:C(C#CC(:O):O):C(C#CC(:O):O):C(C=CC2:C:C%13C=CC%14:C(C#CC(:O):O):C(C#CC(:O):O):C(C=CC%15:C:C(C=CC%16:C(C#CC(:O):O):C(C#CC(:O):O):C(C=CC(:C:3):C:4):C(C#CC(:O):O):C:%16C#CC(:O):O):C:C(C=CC3:C(C#CC(:O):O):C(C#CC(:O):O):C(C=CC4:C:C(C=CC%16:C(C#CC(:O):O):C(C#CC(:O):O):C(C=CC(:C:6):C:7):C(C#CC(:O):O):C:%16C#CC(:O):O):C:C(C=CC6:C(C#CC(:O):O):C(C#CC(:O):O):C(C=CC7:C:C(C=CC%16:C(C#CC(:O):O):C(C#CC(:O):O):C(C=CC(:C:%10):C:9):C(C#CC(:O):O):C:%16C#CC(:O):O):C:C(C=CC9:C(C#CC(:O):O):C(C#CC(:O):O):C(C=CC(:C:2):C:%13):C(C#CC(:O):O):C:9C#CC(:O):O):C:7):C(C#CC(:O):O):C:6C#CC(:O):O):C:4):C(C#CC(:O):O):C:3C#CC(:O):O):C:%15):C(C#CC(:O):O):C:%14C#CC(:O):O):C(C#CC(:O):O):C:1C#CC(:O):O):C:%12):C(C#CC(:O):O):C:%11C#CC(:O):O):C(C#CC(:O):O):C:8C#CC(:O):O):C(C#CC(:O):O):C:5C#CC(:O):O,1
SR_ecf_v1-8c_Co_2_Ch_1B_2NH2_Ch_1x1x1,0.12993,0.77768,0.549513,3342.69,1836.85,17.87613,7.57952,25762.7617,,,,654,,120,120,96,C40Cl1Co4H32N32,0.038095238,8,8c_Co_2_Ch,26,NC1:C:C(C2C:N:N:N:2):C(N):C:C:1C1C:N:N:N:1,1
SR_dme_v1-4c_Cd_1_Ch_v2-3c_pyrrole_Ch_ntn_edge_1B_2CF3_Ch_1x1x2,0.06267,0.79978,0.576855,3453.33,1992.07,14.84729,10.95369,43864.73649,,,,904,,128,128,128,C52Cd2F30H12N1O16,0.018018018,4,4c_Cd_1_Ch,"22,90",O:C(:O)C1:C:C(:C(:C:C:1C(F)(F)F)C(:O):O)C(F)(F)F___O:C(:O)C1:C:C(:C(:C:C:1C(F)(F)F)C1:C:C:C(C2:C:C(:C(:C:C:2C(F)(F)F)C(:O):O)C(F)(F)F):N:1N1:C(:C:C:C:1C1:C:C(:C(:C:C:1C(F)(F)F)C(:O):O)C(F)(F)F)C1:C:C(:C(:C:C:1C(F)(F)F)C(:O):O)C(F)(F)F)C(F)(F)F,1
SR_dni_v1-8c_Co_1_Ch_v2-3c_B_Ch_v3-3c_B_Ch_1B_2NH2_Ch_1x1x1,0.14915,0.80304,0.44051,3978.13,1752.41,24.98964,6.73979,51520.74755,,,,1470,,120,120,96,C112Co4H88N24O17,0.01659751,8,8c_Co_1_Ch,180,NC1:C:C(C2:C:C(:C:C(:C:2)C2:C:C(N):C(:C:C:2N)C2:C:C(:C:C(:C:2)C2:C:C(N):C(:C:C:2N)C2:C:C(:C:C(:C:2)C2:C:C(N):C(:C:C:2N)C(:O):O)C2:C:C(N):C(:C:C:2N)C(:O):O)C2:C:C(N):C(:C:C:2N)C2:C:C(:C:C(:C:2)C2:C:C(N):C(:C:C:2N)C(:O):O)C2:C:C(N):C(:C:C:2N)C(:O):O)C2:C:C(N):C(:C:C:2N)C(:O):O):C(N):C:C:1C(:O):O,1
SR_eps_v1-3c_triazine_Ch_v2-8c_Co_1_Ch_v3-4c_porphyrin_Ch_1B_2NH2_Ch_1x1x1,0.10865,0.77138,0.524686,3403.34,1785.68,17.88578,8.01916,23709.07794,,,,765,,60,60,48,C112Co4H82N40O17,0.015936255,8,8c_Co_1_Ch,250,NC1:C:C(C2:N:C(:N:C(:N:2)C2:C:C(N):C(:C:C:2N)C2:C3:C:C:C(:N:3):C(C3:C:C(N):C(:C:C:3N)C3:N:C(:N:C(:N:3)C3:C:C(N):C(:C:C:3N)C(:O):O)C3:C:C(N):C(:C:C:3N)C(:O):O):C3:C:C:C(:[NH]:3):C(C3:C:C(N):C(:C:C:3N)C3:N:C(:N:C(:N:3)C3:C:C(N):C(:C:C:3N)C(:O):O)C3:C:C(N):C(:C:C:3N)C(:O):O):C3:C:C:C(:N:3):C(C3:C:C(N):C(:C:C:3N)C3:N:C(:N:C(:N:3)C3:C:C(N):C(:C:C:3N)C(:O):O)C3:C:C(N):C(:C:C:3N)C(:O):O):C3:C:C:C:2:[NH]:3)C2:C:C(N):C(:C:C:2N)C(:O):O):C(N):C:C:1C(:O):O,1
SR_dni_v1-8c_Co_1_Ch_v2-3c_triazine_Ch_v3-3c_triazine_Ch_1DoU_Ch_1x1x1,0.16286,0.78198,0.557431,3452.86,1924.73,19.67851,5.29906,23818.01381,,,,654,,120,120,96,C48Co4H24N16O17,0.038095238,8,8c_Co_1_Ch,78,O:C(:O)C=CC1:N:C(C=CC(:O):O):N:C(C=CC2:N:C(C=CC3:N:C(C=CC(:O):O):N:C(C=CC(:O):O):N:3):N:C(C=CC3:N:C(C=CC(:O):O):N:C(C=CC(:O):O):N:3):N:2):N:1,1
SR_dnj_v1-8c_Co_1_Ch_v2-6c_B_Ch_v3-3c_pyrrole_Ch_ntn_edge_1DoU_Ch_1x1x1,0.26301,0.6271,0.962296,1606.99,1546.4,11.64714,7.92343,11571.77111,,,,558,,120,120,96,C44Co4H24N4O17,0.04494382,8,8c_Co_1_Ch,132,O:C(:O)C=CC1:C:C:C(C=CC(:O):O):N:1C1:C(:C(:C(:C(:C:1N1:C(C=CC(:O):O):C:C:C:1C=CC(:O):O)N1:C(C=CC(:O):O):C:C:C:1C=CC(:O):O)N1:C(C=CC(:O):O):C:C:C:1C=CC(:O):O)N1:C(C=CC(:O):O):C:C:C:1C=CC(:O):O)N1:C(C=CC(:O):O):C:C:C:1C=CC(:O):O,1
SR_ecf_v1-8c_Zr_1_Ch_1B_2SH_Ch_2x2x2,0.1172,0.68402,0.926599,1625.85,1506.51,16.64937,5.78192,173133.2629,,,,5280,,2304,2304,768,C16H16O16S4Zr3,0.057692308,8,8c_Zr_1_Ch,18,O:C(:O)C1:C:C(S):C(:C:C:1S)C(:O):O,1
SR_dnx_v1-4c_V_1_Ch_v2-4c_1anC_Ch_v3-3c_B_Ch_1B_2CF3_Ch_ntn_edge_1x1x1,0.37461,0.29462,1.94481,0,0,5.13876,1.31547,12816.03774,,,,1104,,108,96,96,C23F12H6O4V1,0.022222222,4,4c_V_1_Ch,,None,1
SR_ecf_v1-8c_Co_2_Ch_1B_2Br_Ch_1x1x1,0.3113,0.7614,0.779702,2316.4,1806.1,17.30517,7.80579,25698.14241,,,,558,,120,120,96,Br8C40Cl1Co4H16N24,0.04494382,8,8c_Co_2_Ch,22,BrC1:C:C(C2C:N:N:N:2):C(Br):C:C:1C1C:N:N:N:1,1
SR_eps_v1-3c_pyrrole_Ch_v2-8c_Zr_1_Ch_v3-4c_porphyrin_Ch_1DoU_Ch_1TrU_Ch_1x1x1,0.11117,0.78098,0.584224,2739.8,1600.66,21.67203,7.72368,17329.87417,,,,468,,144,144,48,C34H21N4O16Zr3,0.04,8,8c_Zr_1_Ch,118,O:C(:O)C#CC1:C:C:C(C#CC(:O):O):N:1C=CC1:C2:C:C:C(:N:2):C(C=CN2:C(C#CC(:O):O):C:C:C:2C#CC(:O):O):C2:C:C:C(:[NH]:2):C(C=CN2:C(C#CC(:O):O):C:C:C:2C#CC(:O):O):C2:C:C:C(:N:2):C(C=CN2:C(C#CC(:O):O):C:C:C:2C#CC(:O):O):C2:C:C:C:1:[NH]:2,1
SR_epo_v1-3c_pyrrole_Ch_v2-6c_Zn_1_Ch_v3-4c_porphyrin_Ch_1B_2furan_Ch_1x1x1,0.07466,0.92564,0.182018,5797.61,1055.27,32.84577,22.1333,172897.767,,,,1708,,128,128,96,C246H99N12O62Zn8,0.019093079,6,6c_Zn_1_Ch,278,O:C(:O)C1:C:C2:C:C3:O:C(:C:C:3:C:C:2:O:1)C1:C:C:C(C2:C:C3:C:C4:O:C(:C:C:4:C:C:3:O:2)C(:O):O):N:1C1:C:C2:C:C3:O:C(:C:C:3:C:C:2:O:1)C1:C2:C:C:C(:N:2):C(C2:C:C3:C:C4:O:C(:C:C:4:C:C:3:O:2)N2:C(:C:C:C:2C2:C:C3:C:C4:O:C(:C:C:4:C:C:3:O:2)C(:O):O)C2:C:C3:C:C4:O:C(:C:C:4:C:C:3:O:2)C(:O):O):C2:C:C:C(:[NH]:2):C(C2:C:C3:C:C4:O:C(:C:C:4:C:C:3:O:2)N2:C(:C:C:C:2C2:C:C3:C:C4:O:C(:C:C:4:C:C:3:O:2)C(:O):O)C2:C:C3:C:C4:O:C(:C:C:4:C:C:3:O:2)C(:O):O):C2:C:C:C(:N:2):C(C2:C:C3:C:C4:O:C(:C:C:4:C:C:3:O:2)N2:C(:C:C:C:2C2:C:C3:C:C4:O:C(:C:C:4:C:C:3:O:2)C(:O):O)C2:C:C3:C:C4:O:C(:C:C:4:C:C:3:O:2)C(:O):O):C2:C:C:C:1:[NH]:2,1
SR_eea_v1-3c_B_Ch_v2-6c_Ni_1_Ch_1B_4CN_Ch_1x1x1,0.10236,0.79848,0.489849,3204.28,1569.61,18.57144,12.43169,61093.66975,,,,1152,,162,162,108,C39H4N12Ni2O7,0.032258065,6,6c_Ni_1_Ch,60,N#CC1:C(C#N):C(C2:C:C(:C:C(:C:2)C2:C(C#N):C(C#N):C(C(:O):O):C(C#N):C:2C#N)C2:C(C#N):C(C#N):C(C(:O):O):C(C#N):C:2C#N):C(C#N):C(C#N):C:1C(:O):O,1
SR_dnu_v1-4c_ethene_Ch_v2-8c_Mn_1_Ch_v3-4c_ethene_Ch_1B_4CN_Ch_1x1x1,0.36629,0.49808,1.13441,0,0,12.94193,3.53026,66080.381,,,,3372,,240,240,192,C180Cl1Mn4N96,0.014440433,8,8c_Mn_1_Ch,,None,1
SR_dmc_v1-3c_Cu_imadazoline_Ch_v2-4c_bicyclooctane_Ch_1B_2CN_Ch_ntn_edge_2x1x1,0.07892,0.86752,0.331534,5116.41,1696.26,15.43473,12.25541,34785.86911,,,,576,,48,48,48,C41Cu3H16N12,0.043478261,3,3c_Cu_imadazoline_Ch,138,N#CC1:C:C(C2:C:N:N:C:2):C(C#N):C:C:1C1=CC2(C=C(C3=CC4(C=C(C5:C:C(C#N):C(:C:C:5C#N)C5:C:N:N:C:5)C3C(=C4)C3:C:C(C#N):C(:C:C:3C#N)C3:C:N:N:C:3)C3:C:C(C#N):C(:C:C:3C#N)C3:C:N:N:C:3)C1C(=C2)C1:C:C(C#N):C(:C:C:1C#N)C1:C:N:N:C:1)C1:C:C(C#N):C(:C:C:1C#N)C1:C:N:N:C:1,1
SR_dnj_v1-8c_Co_1_Ch_v2-6c_B_Ch_v3-3c_triazine_Ch_1B_4H_Ch_1TrU_Ch_1x1x1,0.14339,0.8375,0.38709,3340.72,1293.16,25.12222,17.41322,42959.01888,,,,870,,120,120,96,C80Co4H32N12O17,0.028368794,8,8c_Co_1_Ch,210,O:C(:O)C1:C:C:C(:C:C:1)C1:N:C(C#CC2:C(C#CC3:N:C(:N:C(:N:3)C3:C:C:C(:C:C:3)C(:O):O)C3:C:C:C(:C:C:3)C(:O):O):C(C#CC3:N:C(:N:C(:N:3)C3:C:C:C(:C:C:3)C(:O):O)C3:C:C:C(:C:C:3)C(:O):O):C(C#CC3:N:C(:N:C(:N:3)C3:C:C:C(:C:C:3)C(:O):O)C3:C:C:C(:C:C:3)C(:O):O):C(C#CC3:N:C(:N:C(:N:3)C3:C:C:C(:C:C:3)C(:O):O)C3:C:C:C(:C:C:3)C(:O):O):C:2C#CC2:N:C(:N:C(:N:2)C2:C:C:C(:C:C:2)C(:O):O)C2:C:C:C(:C:C:2)C(:O):O):N:C(:N:1)C1:C:C:C(:C:C:1)C(:O):O,1
SR_dni_v1-8c_Co_1_Ch_v2-3c_triazine_Ch_v3-3c_triazine_Ch_1B_2SH_Ch_1x1x1,0.12708,0.78558,0.533317,2983.93,1591.38,25.60321,5.75413,50542.23668,,,,1230,,120,120,96,C96Co4H48N16O17S24,0.019900498,8,8c_Co_1_Ch,150,O:C(:O)C1:C:C(S):C(:C:C:1S)C1:N:C(:N:C(:N:1)C1:C:C(S):C(:C:C:1S)C1:N:C(:N:C(:N:1)C1:C:C(S):C(:C:C:1S)C1:N:C(:N:C(:N:1)C1:C:C(S):C(:C:C:1S)C(:O):O)C1:C:C(S):C(:C:C:1S)C(:O):O)C1:C:C(S):C(:C:C:1S)C1:N:C(:N:C(:N:1)C1:C:C(S):C(:C:C:1S)C(:O):O)C1:C:C(S):C(:C:C:1S)C(:O):O)C1:C:C(S):C(:C:C:1S)C(:O):O,1
SR_dpd_v1-4c_bicyclooctane_Ch_v2-4c_Cu_1_Ch_v3-4c_1anC_Ch_1B_4H_Ch_1DoU_Ch_1x1x1,0.1488,0.78316,0.514021,3978.4,2044.98,16.81856,7.59721,60456.40654,,,,1816,,216,192,192,C125Cu6H72O24,0.027149321,4,4c_Cu_1_Ch,221,O:C(:O)C1:C:C:C(:C:C:1)C1=CC2(C=CC(C=CC34C=C(C5:C:C:C(:C:C:5)C(:O):O)C(C(=C3)C3:C:C:C(:C:C:3)C(:O):O)C(=C4)C3:C:C:C(:C:C:3)C(:O):O)(C=CC34C=C(C5:C:C:C(:C:C:5)C(:O):O)C(C(=C3)C3:C:C:C(:C:C:3)C(:O):O)C(=C4)C3:C:C:C(:C:C:3)C(:O):O)C=CC34C=C(C5:C:C:C(:C:C:5)C(:O):O)C(C(=C3)C3:C:C:C(:C:C:3)C(:O):O)C(=C4)C3:C:C:C(:C:C:3)C(:O):O)C=C(C3:C:C:C(:C:C:3)C(:O):O)C1C(=C2)C1:C:C:C(:C:C:1)C(:O):O,1
SR_epe_v1-4c_Cu_1_Ch_v2-3c_pyrrole_Ch_v3-4c_Cu_1_Ch_1DoU_Ch_1x1x1,0.16212,0.92224,0.218321,4491.68,980.629,39.63471,19.73164,134908.9242,,,,1416,,324,288,288,C26Cu3H16N2O12,0.053571429,4,4c_Cu_1_Ch,28,O:C(:O)C=CC1:C:C:C(C=CC(:O):O):N:1C=CC(:O):O,1
SR_eab_v1-4c_In_1_Ch_v2-4c_bicyclooctane_Ch_ntn_edge_1B_2NH2_Ch_2x2x1,0.12713,0.76454,0.716265,2514,1800.69,16.70042,7.32325,104516.3836,,,,2496,,768,768,768,C11H5In1N1O8,0.04,4,4c_In_1_Ch,"192,6",NC1:C:C2C3=CC4(C=C(C(:O):O)C3C(=C4)C(:O):O)C3:C:C(N):C(:C:C:3N)C3=CC4(C=C(C(:O):O)C3C(=C4)C(:O):O)C3:C:C(N):C(:C:C:3N)C34C=C(C(:O):O)C(C(=C3)C(:O):O)C(=C4)C3:C:C(N):C(:C:C:3N)C3=CC4(C=C(C(:O):O)C3C(=C4)C(:O):O)C3:C:C(N):C(:C:C:3N)C34C=C(C(:O):O)C(C(=C3)C(:O):O)C(=C4)C3:C:C(N):C(:C:C:3N)C34C=C(C(:O):O)C(C(=C3)C(:O):O)C(=C4)C:1:C:C:2N___O:C(:O)C(:O):O,1
SR_dpe_v1-6c_Zr_1_Ch_v2-8c_Zr_1_Ch_v3-4c_porphyrin_Ch_1TrU_Ch_1DoU_Ch_1x1x1,0.15297,0.69686,0.897044,2171.85,1948.24,15.39246,4.24397,29215.50649,,,,1062,,528,528,144,C144H166N12O176Zr33,0.06626506,"6,8","6c_Zr_1_Ch,8c_Zr_1_Ch","54,10",O:C(:O)C#CC1:C2:C:C:C(:N:2):C(C#CC(:O):O):C2:C:C:C(:[NH]:2):C(C#CC(:O):O):C2:C:C:C(:N:2):C(C#CC(:O):O):C2:C:C:C:1:[NH]:2___O:C(:O)C=CC(:O):O,1
SR_eci_v1-8c_Mn_1_Ch_1B_2NH2_Ch_1x1x1,0.15437,0.75432,0.620016,3372.83,2091.21,11.70816,8.28368,26285.23836,,,,808,,160,160,128,C32Cl1H24Mn4N40,0.041237113,8,8c_Mn_1_Ch,24,NC1:C:C(C2:N:N:N:N:2):C(N):C:C:1C1:N:N:N:N:1,1
SR_dnk_v1-6c_Fe_1_Ch_v2-6c_B_Ch_v3-4c_ethene_Ch_ntn_edge_1B_2CH3_Ch_1x1x1,0.39686,0.4709,1.24171,0,0,13.11931,2.37014,59328.48093,,,,4368,,720,720,576,C43Fe3H32O13,0.034090909,6,6c_Fe_1_Ch,"120,14",CC1:C:C(:C(C):C:C:1C(:O):O)C1:C(C2:C:C(C):C(:C:C:2C)C(:O):O):C(C2:C:C(C):C(:C:C:2C)C(:O):O):C(C2:C:C(C):C(:C:C:2C)C(:O):O):C(C2:C:C(C):C(:C:C:2C)C(:O):O):C:1C1:C:C(C):C(:C:C:1C)C(:O):O___O:C(:O)C(=C(C(:O):O)C(:O):O)C(:O):O,1
SR_ecf_v1-8c_Co_2_Ch_1B_2CF3_Ch_1x1x1,0.13652,0.73376,0.738277,2357.89,1740.78,16.59233,6.6165,25862.13532,,,,702,,120,120,96,C48Cl1Co4F24H16N24,0.03539823,8,8c_Co_2_Ch,28,FC(F)(F)C1:C:C(C2C:N:N:N:2):C(:C:C:1C1C:N:N:N:1)C(F)(F)F,1
SR_eci_v1-8c_Mn_1_Ch_1B_2CH3_Ch_1x1x1,0.15484,0.74556,0.61349,3348,2053.96,11.22251,8.19625,26380.75128,,,,872,,160,160,128,C40Cl1H32Mn4N32,0.038095238,8,8c_Mn_1_Ch,26,CC1:C:C(C2:N:N:N:N:2):C(C):C:C:1C1:N:N:N:N:1,1
SR_epe_v1-4c_Ni_1_Ch_v2-3c_pyrrole_Ch_v3-4c_Ni_1_Ch_1DoU_Ch_1TrU_Ch_1x1x1,0.2195,0.917,0.226841,4619.68,1047.93,37.8323,19.54989,126575.7008,,,,1320,,324,288,288,C26H12N2Ni3O12,0.057692308,4,4c_Ni_1_Ch,26,O:C(:O)C#CN1:C(C=CC(:O):O):C:C:C:1C=CC(:O):O,1
SR_eft_v1-4c_porphyrin_Ch_v2-8c_Co_1_Ch_v3-3c_pyrrole_Ch_1B_2NH2_Ch_2x1x2,0.14693,0.73134,0.605737,3287.45,1991.33,11.04022,7.85933,27873.07486,,,,1036,,80,80,64,C116Co4H90N32O17,0.015686275,8,8c_Co_1_Ch,254,NC1:C:C(:C(N):C:C:1C(:O):O)C1:C:C:C(C2:C:C(N):C(:C:C:2N)C2:C3:C:C:C(:N:3):C(C3:C:C(N):C(:C:C:3N)C3:C:C:C(C4:C:C(N):C(:C:C:4N)C(:O):O):N:3C3:C:C(N):C(:C:C:3N)C(:O):O):C3:C:C:C(:[NH]:3):C(C3:C:C(N):C(:C:C:3N)C3:C:C:C(C4:C:C(N):C(:C:C:4N)C(:O):O):N:3C3:C:C(N):C(:C:C:3N)C(:O):O):C3:C:C:C(:N:3):C(C3:C:C(N):C(:C:C:3N)C3:C:C:C(C4:C:C(N):C(:C:C:4N)C(:O):O):N:3C3:C:C(N):C(:C:C:3N)C(:O):O):C3:C:C:C:2:[NH]:3):N:1C1:C:C(N):C(:C:C:1N)C(:O):O,1
SR_dnr_v1-4c_B_Ch_v2-4c_Ni_1_Ch_v3-3c_triazine_Ch_1B_2NH2_Ch_1x1x2,0.09329,0.89016,0.253393,4848.92,1228.68,42.33399,41.73039,101995.9871,,,,1368,,108,96,96,C49H37N18Ni2O8,0.017857143,4,4c_Ni_1_Ch,224,NC1:C:C(C2:N:C(:N:C(:N:2)C2:C:C(N):C(:C:C:2N)C2:C:C(C3:C:C(N):C(:C:C:3N)C3:N:C(:N:C(:N:3)C3:C:C(N):C(:C:C:3N)C(:O):O)C3:C:C(N):C(:C:C:3N)C(:O):O):C(:C:C:2C2:C:C(N):C(:C:C:2N)C2:N:C(:N:C(:N:2)C2:C:C(N):C(:C:C:2N)C(:O):O)C2:C:C(N):C(:C:C:2N)C(:O):O)C2:C:C(N):C(:C:C:2N)C2:N:C(:N:C(:N:2)C2:C:C(N):C(:C:C:2N)C(:O):O)C2:C:C(N):C(:C:C:2N)C(:O):O)C2:C:C(N):C(:C:C:2N)C(:O):O):C(N):C:C:1C(:O):O,1