name,k,VF,density,ASA_grav,ASA_vol,LPD,PLD,volume,,,,N_atoms,,N_metal_containing_bonds,N_metal_nonmetal_bonds,N_metal_linker_bonds,formula,metal_nonmetal_ratio,metal_node_connectivity,metal_node_name,N_atoms_per_linker,linker_SMILES,N_ccs
SR_cdn_v1-4c_Cu_1_Ch_v2-4c_Cu_1_Ch_2TrU_Ch_1TrU_Ch_1DoU_Ch_2x2x1,1.53965,0.78714,0.679188,3181.82,2161.05,12.32433,8.57053,114130.1755,,,,2624,,1152,1024,1024,C18Cu4H3O16,0.108108108,4,4c_Cu_1_Ch,"10,8,10",O:C(:O)C#CC#CC(:O):O___O:C(:O)C#CC(:O):O___O:C(:O)C=CC(:O):O,1
SR_cut_v1-8c_Co_2_Ch_v2-3c_B_Ch_ntn_edge_1B_4H_Ch_2x2x3,1.09893,0.79684,0.495256,3278.69,1623.79,16.26158,14.77801,50703.24061,,,,1308,,240,240,192,C52Cl1Co4H28N24,0.038095238,8,8c_Co_2_Ch,52,C1:N:N:N:C1C1:C:C(:C:C(:C:1)C1:C:C:C(:C:C:1)C1:C:C(:C:C(:C:1)C1C:N:N:N:1)C1C:N:N:N:1)C1C:N:N:N:1,1
SR_ced_v1-3c_triazine_Ch_v2-12c_Mn_1_Ch_2B_4H_Ch_ntn_edge_2x2x2,0.22855,0.8038,0.43549,4496.59,1958.22,15.18056,11.05793,116550.4582,,,,2584,,336,336,144,C174H96Mn8N18O27,0.025396825,12,12c_Mn_1_Ch,104,OC(:O)C1:C:C:C(:C:C:1)C1:C:C:C(:C:C:1)C1:N:C(:N:C(:N:1)C1:N:C(:N:C(:N:1)C1:C:C:C(:C:C:1)C1:C:C:C(:C:C:1)C(:O):O)C1:C:C:C(:C:C:1)C1:C:C:C(:C:C:1)C(O):O)C1:C:C:C(:C:C:1)C1:C:C:C(:C:C:1)C(:O):O,1
SR_csq_v1-4c_ethene_Ch_v2-8c_Co_1_Ch_1B_4CN_Ch_1x1x2,0.18103,0.5439,1.1061,630.499,697.393,15.29121,13.65848,21858.7271,,,,870,,120,120,96,C92Co4N32O17,0.028368794,8,8c_Co_1_Ch,70,N#CC1:C(C#N):C(C(:O):O):C(C#N):C(C#N):C:1C(=C(C1:C(C#N):C(C#N):C(C(:O):O):C(C#N):C:1C#N)C1:C(C#N):C(C#N):C(C(:O):O):C(C#N):C:1C#N)C1:C(C#N):C(C#N):C(C(:O):O):C(C#N):C:1C#N,1
SR_crs_v1-6c_CdZn_1_Ch_1DoU_Ch_1x1x1,0.06439,0.82956,0.715163,2444.04,1747.89,16.12767,11.72568,28267.4909,,,,560,,256,256,192,C12Cd3H6O13Zn1,0.129032258,6,6c_CdZn_1_Ch,10,O:C(:O)C=CC(:O):O,1
SR_cdn_v1-4c_Cu_1_Ch_v2-4c_Cu_1_Ch_ntn_edge_1B_4Br_Ch_2x2x1,0.85174,0.6801,1.3468,1011.03,1361.66,11.2027,9.86258,140561.9439,,,,3712,,1152,1024,1024,Br6C13Cu2O8,0.074074074,4,4c_Cu_1_Ch,"6,16",O:C(:O)C(:O):O___O:C(:O)C1:C(Br):C(Br):C(C(:O):O):C(Br):C:1Br,1
SR_cut_v1-8c_Co_2_Ch_v2-3c_pyrrole_Ch_2B_1DoU_Ch_ntn_edge_1x1x2,0.25094,0.85782,0.298074,5682.18,1693.71,20.22859,12.20312,27784.97007,,,,546,,40,40,32,C144Cl1Co4H96N28,0.014869888,8,8c_Co_2_Ch,134,C(=CC1:C:C:C(:C:C:1)C1:C:C:C(C2:C:C:C(C=CC3:C:C:C(:C:C:3)C3C:N:N:N:3):C:C:2):N:1N1:C(:C:C:C:1C1:C:C:C(C=CC2:C:C:C(:C:C:2)C2C:N:N:N:2):C:C:1)C1:C:C:C(C=CC2:C:C:C(:C:C:2)C2C:N:N:N:2):C:C:1)C1:C:C:C(:C:C:1)C1C:N:N:N:1,1
SR_cdj_v1-3c_pyrrole_Ch_v2-6c_Ni_1_Ch_1B_2CH3_Ch_1x1x1,0.13189,0.74112,0.571005,3582.25,2045.48,11.01899,7.80096,35043.84716,,,,1336,,144,144,96,C78H68N3Ni4O14,0.024539877,6,6c_Ni_1_Ch,106,CC1:C:C(:C(C):C:C:1C(:O):O)C1:C:C:C(C2:C:C(C):C(:C:C:2C)C(:O):O):N:1C1:C:C(C):C(:C:C:1C)N1:C(:C:C:C:1C1:C:C(C):C(:C:C:1C)C(:O):O)C1:C:C(C):C(:C:C:1C)C(:O):O,1
SR_buh_v1-4c_1anC_Ch_v2-12c_Zr_1_Ch_v3-12c_Zr_1_Ch_2B_4Br_Ch_1x1x1,0.11321,0.59478,1.79027,683.725,1224.05,12.69387,4.49093,78984.24963,,,,2376,,384,384,192,Br96C159H4O32Zr6,0.020618557,12,12c_Zr_1_Ch,93,O:C(:O)C1:C(Br):C(Br):C(:C(Br):C:1Br)C1:C(Br):C(Br):C(:C(Br):C:1Br)C(C1:C(Br):C(Br):C(:C(Br):C:1Br)C1:C(Br):C(Br):C(C(:O):O):C(Br):C:1Br)(C1:C(Br):C(Br):C(:C(Br):C:1Br)C1:C(Br):C(Br):C(C(:O):O):C(Br):C:1Br)C1:C(Br):C(Br):C(:C(Br):C:1Br)C1:C(Br):C(Br):C(C(:O):O):C(Br):C:1Br,1
SR_buh_v1-4c_bicyclooctane_Ch_v2-12c_Eu_1_Ch_v3-12c_Eu_1_Ch_1B_2SH_Ch_1x1x1,0.16485,0.59794,1.14857,1099.03,1262.31,9.58511,3.94625,41144.22862,,,,1872,,384,384,192,C54Eu3H32O16S12,0.026315789,12,12c_Eu_1_Ch,72,O:C(:O)C1:C:C(S):C(:C:C:1S)C1=CC2(C=C(C3:C:C(S):C(:C:C:3S)C(:O):O)C1C(=C2)C1:C:C(S):C(:C:C:1S)C(:O):O)C1:C:C(S):C(:C:C:1S)C(:O):O,1
SR_ced_v1-3c_B_Ch_v2-12c_Mn_1_Ch_1B_2TrU_Ch_ntn_edge_1x1x2,0.11084,0.85144,0.328451,5612.82,1843.54,17.00537,12.2545,34529.34726,,,,538,,84,84,36,C168H66Mn8O27,0.030651341,12,12c_Mn_1_Ch,86,OC(:O)C#CC1:C:C:C(C#CC2:C:C(C#CC3:C:C:C(C#CC(:O):O):C:C:3):C:C(:C:2)C2:C:C(C#CC3:C:C:C(C#CC(O):O):C:C:3):C:C(C#CC3:C:C:C(C#CC(:O):O):C:C:3):C:2):C:C:1,1
SR_cbn_v1-4c_bicyclooctane_Ch_v2-4c_In_1_Ch_v3-4c_In_1_Ch_v4-4c_bicyclooctane_Ch_8_edges_1x3x2,0.38948,0.58428,1.25265,879.001,1101.08,6.81894,5.89226,27617.37265,,,,1344,,384,384,384,C27H10In2O17,0.037037037,4,4c_In_1_Ch,"6,54,108",O:C(:O)C(:O):O___O:C(:O)C1=CC2(C=C(C(:O):O)C1C(=C2)C(:O):O)C1:C:C(O):C(:C:C:1O)C12C=C(C(:O):O)C(C(=C1)C(:O):O)C(=C2)C(:O):O___O:C(:O)C1=CC23C=C(C(:O):O)C1C(=C2)C12C=C(C(:O):O)C(C(=C1)C(:O):O)C(=C2)C12C=C(C(:O):O)C(C(=C1)C(:O):O)C(=C2)C12C=C(C(:O):O)C(C(=C1)C(:O):O)C(=C2)C12C=C(C(:O):O)C(C(=C1)C(:O):O)C(=C2)C12C=C(C(:O):O)C(C(=C1)C(:O):O)C3=C2,1
SR_ceh_v1-3c_pyrrole_Ch_v2-6c_B_Ch_v3-4c_In_1_Ch_4B_fused_8H_Ch_1x1x2,0.15065,0.81488,0.402871,4701.01,1893.9,13.39845,9.21307,47291.57161,,,,1038,,48,48,48,C110H52In1N2O8,0.005813953,4,4c_In_1_Ch,,None,1
SR_cet_v1-3c_pyrrole_Ch_v2-6c_Ni_1_Ch_v3-6c_bicyclooctane_Ch_1TrU_Ch_ntn_edge_3x3x1,0.70495,0.44996,1.43526,0,0,5.17537,3.47458,27766.77561,,,,1800,,324,324,216,C29H9N3Ni2O7,0.041666667,6,6c_Ni_1_Ch,,None,1
SR_ceq_v1-6c_Cr_1_Ch_v2-6c_Cr_1_Ch_v3-3c_B_Ch_1DoU_Ch_1B_4H_Ch_2x2x2,0.28822,0.79824,0.467584,4589.51,2145.98,12.92186,10.27788,92525.60536,,,,2112,,360,360,288,C46Cr3H26O13,0.035294118,6,6c_Cr_1_Ch,42,O:C(:O)C=CC1:C:C(:C:C(:C:1)C1:C:C:C(:C:C:1)C(:O):O)C1:C:C:C(:C:C:1)C(:O):O,1
SR_btv_v1-5c_bicyclooctane_Ch_v2-6c_Zr_1_Ch_1TrU_Ch_ntn_edge_2TrU_Ch_2x2x1,0.35692,0.78566,0.581158,3016.08,1752.82,15.39754,13.54435,42280.21067,,,,1056,,384,384,96,C27H17N3O16Zr3,0.047619048,6,6c_Zr_1_Ch,"312,6",O:C(:O)C#CN1:C:C2:C(:C:1)C13C#CC#CC45C6:C:N7C#CC#CN8:C:C9:C(:C:8)C8%10C#CC#CC%11%12C%13:C:N%14C#CC#CN%15:C:C%16:C(:C:%15)C%15(C#CC#CC(C:6:C:7)(C6:C:N(C#CC(:O):O):C:C:64)C4:C:N(C#CC(:O):O):C:C:45)C4:C:N(C#CC(:O):O):C:C:4C%16(C#CC#CC45C6:C:N7C#CC#CN%16:C:C%17:C(:C:%16)C%16(C#CC#CC(C:%13:C:%14)(C%13:C:N(C#CC(:O):O):C:C:%13%11)C%11:C:N(C#CC(:O):O):C:C:%11%12)C%11:C:N(C#CC(:O):O):C:C:%11C%17(C#CC#CC%11%12C%13:C:N(C#CC#CN%14:C:C(:C1:C:%14)C2(C#CC#CC(C:6:C:7)(C1:C:N(C#CC(:O):O):C:C:14)C1:C:N(C#CC(:O):O):C:C:15)C1:C:N(C#CC(:O):O):C:C:13):C:C:%13C(C#CC#CC9(C1:C:N(C#CC(:O):O):C:C:18)C1:C:N(C#CC(:O):O):C:C:1%10)(C1:C:N(C#CC(:O):O):C:C:1%11)C1:C:N(C#CC(:O):O):C:C:1%12)C1:C:N(C#CC(:O):O):C:C:1%16)C1:C:N(C#CC(:O):O):C:C:1%15___O:C(:O)C(:O):O,1
SR_cee_v1-3c_Cu_imadazoline_Ch_v2-6c_B_Ch_v3-4c_Cu_1_Ch_2B_fused_Ch_1x1x2,0.16165,0.92204,0.196451,5913.56,1161.72,22.56309,19.88506,109141.062,,,,960,,126,120,120,C21Cu2H12N3O2,0.052631579,"3,4","3c_Cu_imadazoline_Ch,4c_Cu_1_Ch","144,26",C1:C:C2:C:C(:C:C:C:2:C:C:1C1:C:N:N:C:1)C1:C(C2:C:C:C3:C:C(:C:C:C:3:C:2)C2:C:N:N:C:2):C(C2:C:C:C3:C:C(:C:C:C:3:C:2)C2:C:N:N:C:2):C(C2:C:C:C3:C:C(:C:C:C:3:C:2)C2:C:N:N:C:2):C(C2:C:C:C3:C:C(:C:C:C:3:C:2)C2:C:N:N:C:2):C:1C1:C:C:C2:C:C(:C:C:C:2:C:1)C1:C:N:N:C:1___O:C(:O)C1:C:C:C2:C:C(:C:C:C:2:C:1)C1:C:N:N:C:1,1
SR_clh_v1-3c_Cu_imadazoline_Ch_v2-3c_triazine_Ch_1B_2OH_Ch_2x2x1,0.06014,0.93842,0.16697,6012.94,1003.98,22.78856,17.81277,125981.4914,,,,1056,,96,96,96,C10Cu1H6N3O2,0.047619048,3,3c_Cu_imadazoline_Ch,"26,100",OC1:C:C(C2:C:N:N:C:2):C(O):C:C:1C1:C:N:N:C:1___OC1:C:C(C2:N:C(:N:C(:N:2)C2:C:C(O):C(:C:C:2O)C2:N:C(:N:C(:N:2)C2:C:C(O):C(:C:C:2O)C2:C:N:N:C:2)C2:C:C(O):C(:C:C:2O)C2:C:N:N:C:2)C2:C:C(O):C(:C:C:2O)C2:C:N:N:C:2):C(O):C:C:1C1:C:N:N:C:1,1
SR_btv_v1-5c_bicyclooctane_Ch_v2-6c_Zr_1_Ch_2B_2F_Ch_ntn_edge_2x1x1,0.12066,0.83766,0.422968,3820.6,1615.99,23.79242,21.77944,51632.02727,,,,1008,,192,192,48,C59F14H31N3O16Zr3,0.024390244,6,6c_Zr_1_Ch,,None,1
SR_cdj_v1-3c_pyrrole_Ch_v2-6c_CdZn_1_Ch_1B_4Br_Ch_1x1x1,0.04841,0.69,1.3455,1409.56,1896.56,11.40156,6.55579,37643.79127,,,,952,,128,128,96,Br30C63Cd3H6N3O13Zn1,0.034782609,6,6c_CdZn_1_Ch,76,O:C(:O)C1:C(Br):C(Br):C(:C(Br):C:1Br)C1:C:C:C(C2:C(Br):C(Br):C(C(:O):O):C(Br):C:2Br):N:1C1:C(Br):C(Br):C(:C(Br):C:1Br)N1:C(:C:C:C:1C1:C(Br):C(Br):C(C(:O):O):C(Br):C:1Br)C1:C(Br):C(Br):C(C(:O):O):C(Br):C:1Br,1
SR_cdn_v1-4c_Cu_1_Ch_v2-4c_porphyrin_Ch_ntn_edge_1B_2F_Ch_2x2x1,1.47682,0.50456,1.30479,148.877,194.253,6.0625,4.85031,58812.20746,,,,3712,,576,512,512,C15Cu1F1H6N2O4,0.035714286,4,4c_Cu_1_Ch,,None,1
SR_btv_v1-5c_bicyclooctane_Ch_v2-6c_Zr_1_Ch_1TrU_Ch_1B_4H_Ch_ntn_edge_2x2x1,0.40592,0.74378,0.681407,2391.3,1629.45,14.97329,13.45594,37760.62984,,,,1200,,384,384,96,C30H23N3O16Zr3,0.041666667,6,6c_Zr_1_Ch,"384,6",O:C(:O)C#CN1:C:C2:C(:C:1)C13C4:C:C:C(:C:C:4)C45C6:C:N(C#CC(:O):O):C:C:6C6(C7:C:C:C(:C:C:7)C78C9:C:N(C#CC(:O):O):C:C:9C9(C%10:C:C:C(:C:C:%10)C%10%11C%12:C:N(C#CC(:O):O):C:C:%12C%12(C%13:C:C:C(:C:C:%13)C2(C2:C:N(C#CC(:O):O):C:C:21)C1:C:N(:C:C:13)C1:C:C:C(:C:C:1)N1:C:C2:C(:C:1)C13C%13:C:C:C(:C:C:%13)C%13%14C%15:C:N(C#CC(:O):O):C:C:%15C(C%15:C:C:C(:C:C:%15)C%15%16C%17:C:N(C#CC(:O):O):C:C:%17C(C%17:C:C:C(:C:C:%17)C%17%18C%19:C:N(C#CC(:O):O):C:C:%19C(C%19:C:C:C(:C:C:%19)C2(C2:C:N(C#CC(:O):O):C:C:21)C1:C:N(C#CC(:O):O):C:C:13)(C1:C:N(C#CC(:O):O):C:C:1%17)C1:C:N(:C:C:1%18)C1:C:C:C(:C:C:1)N1:C:C%12:C%10:C:1)(C1:C:N(C#CC(:O):O):C:C:1%15)C1:C:N(:C:C:1%16)C1:C:C:C(:C:C:1)N1:C:C9:C7:C:1)(C1:C:N(C#CC(:O):O):C:C:1%13)C1:C:N(:C:C:1%14)C1:C:C:C(:C:C:1)N1:C:C4:C6:C:1)C1:C:N(C#CC(:O):O):C:C:1%11)C1:C:N(C#CC(:O):O):C:C:18)C1:C:N(C#CC(:O):O):C:C:15___O:C(:O)C(:O):O,1
SR_brla_v1-4c_1anC_Ch_v2-4c_1anC_Ch_v3-3c_Cu_imadazoline_Ch_ntn_edge_2B_4Br_Ch_1x1x1,0.01706,0.9139,0.373864,1868.46,698.552,40.49522,37.00766,264571.4341,,,,1392,,72,72,72,Br36C65Cu3H6N6,0.026548673,3,3c_Cu_imadazoline_Ch,,None,1
SR_cdp_v1-4c_1anC_Ch_v2-4c_In_1_Ch_ntn_edge_1B_2F_Ch_2x2x1,0.1074,0.7307,0.801499,2763.22,2214.72,9.27983,7.21851,34543.89303,,,,1072,,256,256,256,C33F8H8In2O16,0.030769231,4,4c_In_1_Ch,"6,53",O:C(:O)C(:O):O___O:C(:O)C1:C:C(F):C(:C:C:1F)C(C1:C:C(F):C(:C:C:1F)C(:O):O)(C1:C:C(F):C(:C:C:1F)C(:O):O)C1:C:C(F):C(:C:C:1F)C(:O):O,1
SR_cee_v1-3c_triazine_Ch_v2-6c_B_Ch_v3-4c_Ni_1_Ch_2B_4CN_Ch_1x1x2,0.17919,0.83554,0.36113,4458.61,1610.14,19.19839,17.67869,82611.56524,,,,1176,,54,48,48,C66N27Ni1O4,0.010309278,4,4c_Ni_1_Ch,,None,1
SR_cet_v1-3c_triazine_Ch_v2-6c_Zr_1_Ch_v3-6c_bicyclooctane_Ch_2B_2OH_Ch_1x1x1,0.07701,0.88662,0.269189,4870.14,1310.99,23.67627,19.16469,82335.7551,,,,1108,,96,96,24,C128H85N9O52Zr3,0.010948905,6,6c_Zr_1_Ch,,None,1
SR_buh_v1-4c_1anC_Ch_v2-12c_Eu_1_Ch_v3-12c_Eu_1_Ch_1TrU_Ch_1DoU_Ch_1x1x1,0.35059,0.5801,1.56992,0,0,8.07343,3.62398,16099.46702,,,,696,,384,384,192,C39Eu6H10O32,0.074074074,12,12c_Eu_1_Ch,23,O:C(:O)C#CC(C#CC(:O):O)(C#CC(:O):O)C=CC(:O):O,1
SR_cai_v1-5c_bicyclooctane_Ch_v2-6c_CdZn_1_Ch_ntn_edge_1B_2OH_Ch_1x1x2,0.25805,0.76412,0.643494,2917.4,1877.33,13.26763,10.41211,38642.74998,,,,1224,,128,128,96,C76Cd3H40N6O27Zn1,0.026845638,6,6c_CdZn_1_Ch,,None,1
SR_btv_v1-5c_bicyclooctane_Ch_v2-6c_Ni_1_Ch_ntn_edge_2B_2Br_Ch_2x1x1,0.29387,0.60878,1.30737,1019.02,1332.23,11.60828,9.74111,14448.85505,,,,608,,72,72,48,Br8C41H15N3Ni2O7,0.027027027,6,6c_Ni_1_Ch,,None,1
SR_cdm_v1-4c_V_1_Ch_v2-4c_porphyrin_Ch_ntn_edge_1B_2NH2_Ch_2x2x1,0.33283,0.72048,0.63385,3341.68,2118.12,10.38427,5.59822,110269.1719,,,,4416,,288,256,256,C34H22N8O4V1,0.014705882,4,4c_V_1_Ch,,None,1
SR_cen_v1-12c_Mn_1_Ch_v2-4c_1anC_Ch_1TrU_Ch_1DoU_Ch_2x2x2,0.6978,0.44652,1.5779,0,0,5.37605,2.72674,13640.39506,,,,664,,336,336,144,C44H4Mn8O27,0.106666667,12,12c_Mn_1_Ch,"36,36",O:C(:O)C#CC(C#CC(:O):O)(C#CC(:O):O)C=CC(C#CC(:O):O)(C#CC(:O):O)C#CC(:O):O___OC(:O)C#CC(C#CC(O):O)(C#CC(O):O)C=CC(C#CC(O):O)(C#CC(O):O)C#CC(O):O,1
SR_cmc_v1-4c_In_1_Ch_v2-4c_bicyclooctane_Ch_v3-4c_bicyclooctane_Ch_1TrU_Ch_1DoU_Ch_ntn_edge_2TrU_Ch_1x1x2,0.07287,0.88626,0.291949,4529.94,1322.51,42.75505,41.53448,104688.2218,,,,1408,,256,256,256,C27H8In1O8,0.023255814,4,4c_In_1_Ch,"496,496,8",O:C(:O)C#CC#CC12C=C3C#CC4=CC5(C#CC#CC(:O):O)C=C6C#CC7=CC8(C#CC#CC(:O):O)C=C9C#CC%10=CC%11(C#CC#CC(:O):O)C=C%12C#CC(=C1)C3C(C=CC1=CC3%13C=CC%14=CC%15(C#CC#CC(:O):O)C=C%16C#CC%17=CC%18(C#CC#CC(:O):O)C=C%19C#CC%20=CC%21(C#CC#CC(:O):O)C=C%22C#CC%23=CC%24(C#CC#CC(:O):O)C=C(C#CC(=C%15)C%16%14)C%23C(C=CC%14%15C=C(C=CC(=C5)C46)C4C(=C%14)C(=C3)C1C(=C%13)C1=CC35C=CC6=CC%13(C#CC#CC(:O):O)C=C%14C#CC%16=CC%23(C#CC#CC(:O):O)C=C%25C#CC%26=CC%27(C#CC#CC(:O):O)C=C%28C#CC%29=CC%30(C#CC#CC(:O):O)C=C(C#CC(=C%13)C%146)C%29C(C=CC6%13C=C%14C=CC%29=CC%31(C#CC#CC(:O):O)C=C%32C#CC%33=CC%34(C#CC#CC(:O):O)C=C(C#CC%35=CC%36(C#CC#CC(:O):O)C=C%37C#CC%38=CC%39(C#CC#CC(:O):O)C=C(C#CC(=C%31)C%32%29)C%38C(C=CC%29%31C=C(C=CC(=C%27)C%26%28)C%26C(=C%29)C%27=CC%28(C=CC(=C8)C79)C=C(C=CC(=C%21)C%20%22)C%27C(=C%28)C7=CC8(C=CC(=C%11)C%12%10)C=C(C=CC(=C%18)C%19%17)C7C(=C8)C7=CC8(C=CC(=C%36)C%35%37)C=C(C=CC(=C%23)C%25%16)C7C(=C8)C%26=C%31)=C%39)C%33C(C=CC(=C3)C1C(=C5)C(=C6)C%14C(=C%13)C4=C%15)=C%34)=C%30)=C%24)=C2___O:C(:O)C#CC#CC12C=C3C#CC4=CC5(C#CC#CC(:O):O)C=C6C#CC7=CC8(C#CC#CC(:O):O)C=C9C#CC%10=CC%11(C#CC#CC(:O):O)C=C%12C#CC(=C1)C3C(C=CC1=CC3%13C=CC%14=CC%15(C#CC#CC(:O):O)C=C%16C#CC%17=CC%18(C#CC#CC(:O):O)C=C%19C#CC%20=CC%21(C#CC#CC(:O):O)C=C%22C#CC%23=CC%24(C#CC#CC(:O):O)C=C(C#CC(=C%15)C%16%14)C%23C(C=CC%14=CC%15(C=CC(=C%11)C%12%10)C=C%10C%11=CC%12%16C=CC%23=CC%25(C#CC#CC(:O):O)C=C%26C#CC%27=CC%28(C#CC#CC(:O):O)C=C%29C#CC%30=CC%31(C#CC#CC(:O):O)C=C%32C#CC%33=CC%34(C#CC#CC(:O):O)C=C(C#CC(=C%25)C%26%23)C%33C(C=CC%23=CC%25%26C=CC%33=CC%35(C#CC#CC(:O):O)C=C%36C#CC%37=CC%38(C#CC#CC(:O):O)C=C(C#CC%39=CC%40(C#CC#CC(:O):O)C=C%41C#CC%42=CC%43(C#CC#CC(:O):O)C=C(C#CC(=C%35)C%36%33)C%42C(C=CC%33%35C=C(C=CC(=C%31)C%30%32)C%30C(=C%33)C%31=CC%32(C=CC(=C5)C46)C=C(C=CC(=C%18)C%19%17)C%31C(=C%32)C(=C3)C1C(=C%13)C1=CC3(C=CC(=C%40)C%39%41)C=C(C=CC(=C%28)C%29%27)C1C(=C3)C%30=C%35)=C%43)C%37C(C=CC(=C%12)C%11C(=C%16)C(=C%25)C%23C(=C%26)C1=CC3(C=CC(=C8)C79)C=C(C=CC(=C%21)C%20%22)C1C(=C3)C(=C%15)C%14%10)=C%38)=C%34)=C%24)=C2___O:C(:O)C#CC(:O):O,1
SR_cee_v1-3c_triazine_Ch_v2-6c_B_Ch_v3-4c_Ni_1_Ch_2B_fused_Ch_1x1x2,0.36026,0.86156,0.296513,5841.16,1731.98,16.85144,13.98469,47680.31771,,,,744,,54,48,48,C36H18N3Ni1O4,0.016393443,4,4c_Ni_1_Ch,366,O:C(:O)C1:C:C:C2:C:C(:C:C:C:2:C:1)C1:N:C(:N:C(:N:1)C1:C:C:C2:C:C(:C:C:C:2:C:1)C1:C(C2:C:C:C3:C:C(:C:C:C:3:C:2)C2:N:C(:N:C(:N:2)C2:C:C:C3:C:C(:C:C:C:3:C:2)C(:O):O)C2:C:C:C3:C:C(:C:C:C:3:C:2)C(:O):O):C(C2:C:C:C3:C:C(:C:C:C:3:C:2)C2:N:C(:N:C(:N:2)C2:C:C:C3:C:C(:C:C:C:3:C:2)C(:O):O)C2:C:C:C3:C:C(:C:C:C:3:C:2)C(:O):O):C(C2:C:C:C3:C:C(:C:C:C:3:C:2)C2:N:C(:N:C(:N:2)C2:C:C:C3:C:C(:C:C:C:3:C:2)C(:O):O)C2:C:C:C3:C:C(:C:C:C:3:C:2)C(:O):O):C(C2:C:C:C3:C:C(:C:C:C:3:C:2)C2:N:C(:N:C(:N:2)C2:C:C:C3:C:C(:C:C:C:3:C:2)C(:O):O)C2:C:C:C3:C:C(:C:C:C:3:C:2)C(:O):O):C:1C1:C:C:C2:C:C(:C:C:C:2:C:1)C1:N:C(:N:C(:N:1)C1:C:C:C2:C:C(:C:C:C:2:C:1)C(:O):O)C1:C:C:C2:C:C(:C:C:C:2:C:1)C(:O):O)C1:C:C:C2:C:C(:C:C:C:2:C:1)C(:O):O,1
SR_cdj_v1-3c_pyrrole_Ch_v2-6c_Zr_1_Ch_1B_2NH2_Ch_1x1x1,0.09027,0.77078,0.593876,3165.61,1879.98,13.44295,9.44519,47950.50237,,,,1536,,384,384,96,C63H73N18O32Zr6,0.032258065,6,6c_Zr_1_Ch,96,NC1:C:C(:C(N):C:C:1C(:O):O)C1:C:C:C(C2:C:C(N):C(:C:C:2N)C(:O):O):N:1C1:C:C(N):C(:C:C:1N)N1:C(:C:C:C:1C1:C:C(N):C(:C:C:1N)C(:O):O)C1:C:C(N):C(:C:C:1N)C(:O):O,1
SR_cdle_v1-4c_B_Ch_v2-4c_1anC_Ch_v3-4c_V_1_Ch_1TrU_Ch_1DoU_Ch_2x2x1,0.45071,0.74952,0.656428,3604.97,2366.4,9.21511,7.63483,17056.92212,,,,488,,144,128,128,C31H10O16V4,0.070175439,4,4c_V_1_Ch,"21,36",O:C(:O)C#CC(C#CC(:O):O)(C#CC(:O):O)C#CC(:O):O___O:C(:O)C=CC1:C:C(C=CC(:O):O):C(C=CC(:O):O):C:C:1C=CC(:O):O,1
SR_cdj_v1-3c_pyrrole_Ch_v2-6c_Zn_1_Ch_2B_fused_Ch_1x1x1,0.0871,0.86296,0.320182,5687,1820.88,21.497,10.50796,69729.92047,,,,1312,,128,128,96,C93H51N3O13Zn4,0.025,6,6c_Zn_1_Ch,106,O:C(:O)C1:C:C:C2:C:C(:C:C:C:2:C:1)C1:C:C:C(C2:C:C:C3:C:C(:C:C:C:3:C:2)C(:O):O):N:1C1:C:C:C2:C:C(:C:C:C:2:C:1)N1:C(:C:C:C:1C1:C:C:C2:C:C(:C:C:C:2:C:1)C(:O):O)C1:C:C:C2:C:C(:C:C:C:2:C:1)C(:O):O,1
SR_cmc_v1-4c_Cd_1_Ch_v2-4c_1anC_Ch_v3-4c_bicyclooctane_Ch_2B_2NH2_Ch_1x1x1,0.0345,0.9234,0.164756,5672.94,934.65,61.21619,58.37716,227753.8566,,,,2560,,128,128,128,C69Cd1H62N20O8,0.006289308,4,4c_Cd_1_Ch,,None,1
SR_cdm_v1-4c_Cu_1_Ch_v2-4c_Cu_1_Ch_1B_4Br_Ch_ntn_edge_2x2x1,3.56107,0.4801,2.14417,0,0,5.50013,2.65943,41951.3509,,,,1984,,864,768,768,Br4C12Cu3O12,0.107142857,4,4c_Cu_1_Ch,"6,16",O:C(:O)C(:O):O___O:C(:O)C1:C(Br):C(Br):C(C(:O):O):C(Br):C:1Br,1
SR_cdz_v1-4c_V_1_Ch_v2-4c_V_1_Ch_1TrU_Ch_1DoU_Ch_ntn_edge_2x1x2,10.11648,0.66882,1.04793,1880.4,1970.53,7.47559,5.47665,23016.99847,,,,800,,432,384,384,C9H1O12V3,0.136363636,4,4c_V_1_Ch,"8,6,10",O:C(:O)C#CC(:O):O___O:C(:O)C(:O):O___O:C(:O)C=CC(:O):O,1
SR_cdj_v1-3c_B_Ch_v2-6c_CdZn_1_Ch_2B_4CN_Ch_ntn_edge_1x1x1,0.03179,0.82918,0.404014,4610.04,1862.52,19.15634,11.32331,99353.05231,,,,1744,,128,128,96,C144Cd3H9N48O13Zn1,0.018691589,6,6c_CdZn_1_Ch,142,N#CC1:C(C#N):C(:C(C#N):C(C#N):C:1C(:O):O)C1:C(C#N):C(C#N):C(C2:C:C(:C:C(:C:2)C2:C(C#N):C(C#N):C(:C(C#N):C:2C#N)C2:C(C#N):C(C#N):C(C(:O):O):C(C#N):C:2C#N)C2:C:C(:C:C(:C:2)C2:C(C#N):C(C#N):C(:C(C#N):C:2C#N)C2:C(C#N):C(C#N):C(C(:O):O):C(C#N):C:2C#N)C2:C(C#N):C(C#N):C(:C(C#N):C:2C#N)C2:C(C#N):C(C#N):C(C(:O):O):C(C#N):C:2C#N):C(C#N):C:1C#N,1
SR_buh_v1-4c_bicyclooctane_Ch_v2-12c_Eu_1_Ch_v3-12c_Eu_1_Ch_1B_4F_Ch_1x1x1,0.15429,0.63138,1.18174,1350.76,1596.24,9.77024,4.81266,41049.41573,,,,1680,,384,384,192,C54Eu3F24H8O16,0.029411765,12,12c_Eu_1_Ch,64,O:C(:O)C1:C(F):C(F):C(C2=CC3(C=C(C4:C(F):C(F):C(C(:O):O):C(F):C:4F)C2C(=C3)C2:C(F):C(F):C(C(:O):O):C(F):C:2F)C2:C(F):C(F):C(C(:O):O):C(F):C:2F):C(F):C:1F,1
SR_diaj_v1-6c_Al_1_Ch_1DoU_Ch_1x1x1,0.27341,0.78764,0.536531,2491.29,1336.65,21.73309,17.27082,130469.1916,,,,3264,,1440,1440,1152,Al3C12H6O13,0.096774194,6,6c_Al_1_Ch,10,O:C(:O)C=CC(:O):O,1
SR_cev_v1-4c_B_Ch_v2-4c_V_1_Ch_v3-4c_porphyrin_Ch_ntn_edge_2x2x1,1.40219,0.50742,1.21922,0,0,7.6424,2.8402,27719.87565,,,,1536,,216,192,192,C18H7N2O4V1,0.032258065,4,4c_V_1_Ch,186,O:C(:O)C1:C:C2:C(:C:C:1C(:O):O)C1:C3:C:C:C(:N:3):C3C4:C:C(C(:O):O):C(:C:C:4C4:C5:C:C:C(:N:5):C2:C2:C:C:C(:[NH]:2):C2C5:C:C(C(:O):O):C(:C:C:5C5:C6:C:C:C(:N:6):C(C6:C:C(C(:O):O):C(:C:C:6C(:C6:C:C:C:2:N:6):C2:C:C:C:4:[NH]:2)C(:O):O):C2:C:C:C(:[NH]:2):C2C4:C:C(C(:O):O):C(:C:C:4C(:C4:C:C:C(:N:4):C(C4:C:C(C(:O):O):C(:C:C:4C(:C4:C:C:C:2:N:4):C2:C:C:C:5:[NH]:2)C(:O):O):C2:C:C:C:1:[NH]:2):C1:C:C:C:3:[NH]:1)C(:O):O)C(:O):O)C(:O):O,1
SR_cdz_v1-4c_V_1_Ch_v2-4c_V_1_Ch_ntn_edge_1TrU_Ch_1B_4H_Ch_2x2x2,3.73297,0.73834,0.755362,3170.85,2395.14,10.078,7.40068,76401.89935,,,,2368,,864,768,768,C16H6O12V3,0.088235294,4,4c_V_1_Ch,"8,6,16",O:C(:O)C#CC(:O):O___O:C(:O)C(:O):O___O:C(:O)C1:C:C:C(:C:C:1)C(:O):O,1
SR_btv_v1-5c_bicyclooctane_Ch_v2-6c_Ni_1_Ch_ntn_edge_2B_2F_Ch_2x1x1,0.25746,0.6087,1.00866,1309.44,1320.78,10.85222,9.22332,12282.84419,,,,608,,72,72,48,C41F8H15N3Ni2O7,0.027027027,6,6c_Ni_1_Ch,,None,1
SR_brl_v1-4c_Ni_1_Ch_v2-4c_bicyclooctane_Ch_ntn_edge_1B_2NO2_Ch_2x2x2,0.25122,0.60636,0.989336,1349.94,1335.54,6.91406,4.86084,52882.64964,,,,2256,,216,192,192,C22H8N4Ni1O12,0.02173913,4,4c_Ni_1_Ch,276,O:C(:O)C1:C:C(:C(:C:C:1N(:O):O)C1=CC2(C=C3C4=CC5(C=C(C6=CC7(C=C(C8=CC9(C=C(C%10=CC%11(C=C(C%12=CC%13(C=C(C(=C2)C31)C%12C(=C%13)C1:C:C(:C(:C:C:1N(:O):O)C(:O):O)N(:O):O)C1:C:C(:C(:C:C:1N(:O):O)C(:O):O)N(:O):O)C%10C(=C%11)C1:C:C(:C(:C:C:1N(:O):O)C(:O):O)N(:O):O)C1:C:C(:C(:C:C:1N(:O):O)C(:O):O)N(:O):O)C8C(=C9)C1:C:C(:C(:C:C:1N(:O):O)C(:O):O)N(:O):O)C1:C:C(:C(:C:C:1N(:O):O)C(:O):O)N(:O):O)C6C(=C7)C1:C:C(:C(:C:C:1N(:O):O)C(:O):O)N(:O):O)C1:C:C(:C(:C:C:1N(:O):O)C(:O):O)N(:O):O)C4C(=C5)C1:C:C(:C(:C:C:1N(:O):O)C(:O):O)N(:O):O)C1:C:C(:C(:C:C:1N(:O):O)C(:O):O)N(:O):O)C1:C:C(:C(:C:C:1N(:O):O)C(:O):O)N(:O):O)N(:O):O,1