name,k,VF,density,ASA_grav,ASA_vol,LPD,PLD,volume,,,,N_atoms,,N_metal_containing_bonds,N_metal_nonmetal_bonds,N_metal_linker_bonds,formula,metal_nonmetal_ratio,metal_node_connectivity,metal_node_name,N_atoms_per_linker,linker_SMILES,N_ccs
SR_bbl_v1-4c_Cd_1_Ch_v2-4c_1anC_Ch_1B_4Br_Ch_2x2x1,0.18883,0.51504,2.16285,433.811,938.269,7.70784,5.92384,32719.21547,,,,1200,,128,128,128,Br24C42Cd1O8,0.013513514,4,4c_Cd_1_Ch,"464,16",O:C(:O)C1:C(Br):C(Br):C(:C(Br):C:1Br)C12C3:C(Br):C(Br):C(:C(Br):C:3Br)C3(C4:C(Br):C(Br):C(C(:O):O):C(Br):C:4Br)C4:C(Br):C(Br):C(:C(Br):C:4Br)C4(C5:C(Br):C(Br):C(C(:O):O):C(Br):C:5Br)C5:C(Br):C(Br):C(:C(Br):C:5Br)C(C5:C(Br):C(Br):C(C(:O):O):C(Br):C:5Br)(C5:C(Br):C(Br):C1:C(Br):C:5Br)C1:C(Br):C(Br):C(:C(Br):C:1Br)C1(C5:C(Br):C(Br):C(C(:O):O):C(Br):C:5Br)C5:C(Br):C(Br):C(:C(Br):C:5Br)C5(C6:C(Br):C(Br):C(C(:O):O):C(Br):C:6Br)C6:C(Br):C(Br):C(:C(Br):C:6Br)C(C6:C(Br):C(Br):C(C(:O):O):C(Br):C:6Br)(C6:C(Br):C(Br):C3:C(Br):C:6Br)C3:C(Br):C(Br):C(:C(Br):C:3Br)C(C3:C(Br):C(Br):C(C(:O):O):C(Br):C:3Br)(C3:C(Br):C(Br):C1:C(Br):C:3Br)C1:C(Br):C(Br):C(:C(Br):C:1Br)C1(C3:C(Br):C(Br):C(C(:O):O):C(Br):C:3Br)C3:C(Br):C(Br):C(:C(Br):C:3Br)C3(C6:C(Br):C(Br):C(C(:O):O):C(Br):C:6Br)C6:C(Br):C(Br):C(:C(Br):C:6Br)C6(C7:C(Br):C(Br):C(C(:O):O):C(Br):C:7Br)C7:C(Br):C(Br):C(:C(Br):C:7Br)C(C7:C(Br):C(Br):C(C(:O):O):C(Br):C:7Br)(C7:C(Br):C(Br):C2:C(Br):C:7Br)C2:C(Br):C(Br):C(:C(Br):C:2Br)C(C2:C(Br):C(Br):C(C(:O):O):C(Br):C:2Br)(C2:C(Br):C(Br):C(:C(Br):C:2Br)C(C2:C(Br):C(Br):C(C(:O):O):C(Br):C:2Br)(C2:C(Br):C(Br):C4:C(Br):C:2Br)C2:C(Br):C(Br):C6:C(Br):C:2Br)C2:C(Br):C(Br):C(:C(Br):C:2Br)C(C2:C(Br):C(Br):C(C(:O):O):C(Br):C:2Br)(C2:C(Br):C(Br):C(:C(Br):C:2Br)C(C2:C(Br):C(Br):C(C(:O):O):C(Br):C:2Br)(C2:C(Br):C(Br):C5:C(Br):C:2Br)C2:C(Br):C(Br):C3:C(Br):C:2Br)C2:C(Br):C(Br):C1:C(Br):C:2Br___O:C(:O)C1:C(Br):C(Br):C(C(:O):O):C(Br):C:1Br,1
SR_bbi_v1-4c_Cd_1_Ch_v2-4c_Cd_1_Ch_1B_4CN_Ch_ntn_edge_1x2x2,0.06236,0.80274,0.537865,3609.08,1941.2,12.31829,9.38858,77549.14736,,,,1520,,384,384,384,C52Cd3N16O24,0.032608696,4,4c_Cd_1_Ch,"20,6",N#CC1:C(C#N):C(C(:O):O):C(C#N):C(C#N):C:1C(:O):O___O:C(:O)C(:O):O,1
SR_bch_v1-3c_triazine_Ch_v2-3c_triazine_Ch_v3-6c_Mg_1_Ch_1B_2CN_Ch_1x1x1,0.209,0.83742,0.35947,4869.88,1750.58,15.65993,13.58362,78613.78749,,,,1440,,240,240,96,C16H4Mg1N5O4,0.034482759,6,6c_Mg_1_Ch,150,N#CC1:C:C(C2:N:C(:N:C(:N:2)C2:C:C(C#N):C(:C:C:2C#N)C2:N:C(:N:C(:N:2)C2:C:C(C#N):C(:C:C:2C#N)C2:N:C(:N:C(:N:2)C2:C:C(C#N):C(:C:C:2C#N)C(:O):O)C2:C:C(C#N):C(:C:C:2C#N)C(:O):O)C2:C:C(C#N):C(:C:C:2C#N)C2:N:C(:N:C(:N:2)C2:C:C(C#N):C(:C:C:2C#N)C(:O):O)C2:C:C(C#N):C(:C:C:2C#N)C(:O):O)C2:C:C(C#N):C(:C:C:2C#N)C(:O):O):C(C#N):C:C:1C(:O):O,1
SR_bbs_v1-4c_Cd_1_Ch_v2-4c_ethene_Ch_1B_2CH3_Ch_ntn_edge_2x2x2,0.3244,0.6545,0.980748,1908.47,1871.73,6.74266,5.24355,39023.16855,,,,1488,,384,384,384,C14Cd1H8O8,0.033333333,4,4c_Cd_1_Ch,"22,96",CC1:C:C(C(:O):O):C(C):C:C:1C(:O):O___O:C(:O)C1=C(C(=C(C(=C(C(=C(C(=C(C(=C(C(=C(C(=C(C(=C(C(=C(C(=C(C(=C1C(:O):O)C(:O):O)C(:O):O)C(:O):O)C(:O):O)C(:O):O)C(:O):O)C(:O):O)C(:O):O)C(:O):O)C(:O):O)C(:O):O)C(:O):O)C(:O):O)C(:O):O)C(:O):O)C(:O):O)C(:O):O)C(:O):O)C(:O):O)C(:O):O)C(:O):O)C(:O):O,1
SR_bcs_v1-6c_Mg_1_Ch_1B_2Br_Ch_1x1x1,0.24708,0.7737,0.668505,2987.95,1997.46,11.62618,8.37713,54911.65418,,,,1248,,480,480,192,Br1C5H2Mg1O4,0.083333333,6,6c_Mg_1_Ch,16,O:C(:O)C1:C:C(Br):C(:C:C:1Br)C(:O):O,1
SR_bcb_v1-4c_1anC_Ch_v2-4c_Cd_1_Ch_1B_2F_Ch_ntn_edge_1x1x2,0.08951,0.79772,0.563514,2931.24,1651.8,20.27192,18.37516,30024.60104,,,,704,,128,128,128,C23Cd1F6H6O8,0.023255814,4,4c_Cd_1_Ch,"6,148",O:C(:O)C(:O):O___O:C(:O)C1:C:C(F):C(:C:C:1F)C1(C2:C:C(F):C(:C:C:2F)C(:O):O)C2:C:C(F):C(:C:C:2F)C(C2:C:C(F):C(:C:C:2F)C(:O):O)(C2:C:C(F):C(:C:C:2F)C(:O):O)C2:C:C(F):C(:C:C:2F)C(C2:C:C(F):C(:C:C:2F)C(:O):O)(C2:C:C(F):C(:C:C:2F)C(:O):O)C2:C:C(F):C(:C:C:2F)C(C2:C:C(F):C(:C:C:2F)C(:O):O)(C2:C:C(F):C(:C:C:2F)C(:O):O)C2:C:C(F):C1:C:C:2F,1
SR_bcg_v1-8c_Co_1_Ch_1B_4H_Ch_2x2x2,0.3072,0.61584,1.05452,1646.01,1735.75,6.86064,5.08146,91560.77402,,,,4416,,1280,1280,1024,C32Co4H16O17,0.061538462,8,8c_Co_1_Ch,16,O:C(:O)C1:C:C:C(:C:C:1)C(:O):O,1
SR_bch_v1-3c_triazine_Ch_v2-3c_triazine_Ch_v3-6c_Mg_1_Ch_2B_2CH3_Ch_ntn_edge_1x1x1,0.12241,0.76248,0.501194,3468.21,1738.25,15.26135,10.67929,42863.57806,,,,1344,,240,240,96,C12H9Mg1N2O4,0.037037037,6,6c_Mg_1_Ch,138,CC1:C:C(:C(C):C:C:1C1:N:C(:N:C(:N:1)C(:O):O)C(:O):O)C1:C:C(C):C(:C:C:1C)C1:N:C(:N:C(:N:1)C1:C:C(C):C(:C:C:1C)C1:C:C(C):C(:C:C:1C)C1:N:C(:N:C(:N:1)C(:O):O)C(:O):O)C1:C:C(C):C(:C:C:1C)C1:C:C(C):C(:C:C:1C)C1:N:C(:N:C(:N:1)C(:O):O)C(:O):O,1
SR_bch_v1-3c_triazine_Ch_v2-3c_triazine_Ch_v3-6c_Mg_1_Ch_ntn_edge_1B_2indole_Ch_1x1x1,0.26396,0.85886,0.319929,5505.48,1761.36,15.14605,12.61141,79608.85551,,,,1440,,240,240,96,C14H7Mg1N4O4,0.034482759,6,6c_Mg_1_Ch,150,O:C(:O)C1:C:C2:C:C3:[NH]:C(:C:C:3:C:C:2:[NH]:1)C1:N:C(:N:C(:N:1)C1:C:C2:C:C3:[NH]:C(:C:C:3:C:C:2:[NH]:1)C(:O):O)C1:N:C(:N:C(:N:1)C1:N:C(:N:C(:N:1)C1:C:C2:C:C3:[NH]:C(:C:C:3:C:C:2:[NH]:1)C(:O):O)C1:C:C2:C:C3:[NH]:C(:C:C:3:C:C:2:[NH]:1)C(:O):O)C1:N:C(:N:C(:N:1)C1:C:C2:C:C3:[NH]:C(:C:C:3:C:C:2:[NH]:1)C(:O):O)C1:C:C2:C:C3:[NH]:C(:C:C:3:C:C:2:[NH]:1)C(:O):O,1
SR_bbj_v1-4c_In_1_Ch_v2-4c_In_1_Ch_ntn_edge_1B_2CH3_Ch_1x2x2,0.12672,0.75404,0.763651,2753.86,2102.99,12.21424,6.23142,37605.72409,,,,1136,,384,384,384,C28H16In3O24,0.044117647,4,4c_In_1_Ch,"22,6",CC1:C:C(C(:O):O):C(C):C:C:1C(:O):O___O:C(:O)C(:O):O,1
SR_bcs_v1-6c_CdZn_1_Ch_1B_2CF3_Ch_1x1x1,0.12443,0.62432,1.31894,715.832,944.141,7.53896,3.94766,26568.92009,,,,1136,,256,256,192,C30Cd3F18H6O13Zn1,0.059701493,6,6c_CdZn_1_Ch,22,O:C(:O)C1:C:C(:C(:C:C:1C(F)(F)F)C(:O):O)C(F)(F)F,1
SR_bbm_v1-4c_In_1_Ch_v2-4c_In_1_Ch_1B_2NO2_Ch_ntn_edge_2x1x2,0.09392,0.793,0.620361,3325.26,2062.86,12.22976,8.71446,73036.86381,,,,1520,,384,384,384,C36H8In3N8O40,0.032608696,4,4c_In_1_Ch,"6,20",O:C(:O)C(:O):O___O:C(:O)C1:C:C(:C(:C:C:1N(:O):O)C(:O):O)N(:O):O,1
SR_bch_v1-3c_triazine_Ch_v2-3c_triazine_Ch_v3-6c_Mg_1_Ch_ntn_edge_2B_4H_Ch_1x1x1,0.26612,0.78548,0.468525,3304.58,1548.28,16.2449,11.86541,41079.80963,,,,1056,,240,240,96,C10H5Mg1N2O4,0.047619048,6,6c_Mg_1_Ch,102,O:C(:O)C1:N:C(:N:C(:N:1)C1:C:C:C(:C:C:1)C1:C:C:C(:C:C:1)C1:N:C(:N:C(:N:1)C1:C:C:C(:C:C:1)C1:C:C:C(:C:C:1)C1:N:C(:N:C(:N:1)C(:O):O)C(:O):O)C1:C:C:C(:C:C:1)C1:C:C:C(:C:C:1)C1:N:C(:N:C(:N:1)C(:O):O)C(:O):O)C(:O):O,1
SR_bch_v1-3c_triazine_Ch_v2-3c_triazine_Ch_v3-6c_Mg_1_Ch_1B_2CN_Ch_ntn_edge_1x1x1,0.3029,0.76248,0.534867,3943.3,2109.14,10.63313,8.12848,43437.42162,,,,1152,,240,240,96,C12H3Mg1N4O4,0.043478261,6,6c_Mg_1_Ch,114,N#CC1:C:C(C2:N:C(:N:C(:N:2)C2:C:C(C#N):C(:C:C:2C#N)C(:O):O)C2:N:C(:N:C(:N:2)C2:N:C(:N:C(:N:2)C2:C:C(C#N):C(:C:C:2C#N)C(:O):O)C2:C:C(C#N):C(:C:C:2C#N)C(:O):O)C2:N:C(:N:C(:N:2)C2:C:C(C#N):C(:C:C:2C#N)C(:O):O)C2:C:C(C#N):C(:C:C:2C#N)C(:O):O):C(C#N):C:C:1C(:O):O,1
SR_bch_v1-3c_triazine_Ch_v2-3c_triazine_Ch_v3-6c_Mg_1_Ch_2B_2NO2_Ch_ntn_edge_1x1x1,0.18017,0.81754,0.435714,4240.3,1847.56,14.14369,10.99921,91018.2258,,,,1920,,240,240,96,C16H5Mg1N6O12,0.025641026,6,6c_Mg_1_Ch,210,O:C(:O)C1:C:C(:C(:C:C:1N(:O):O)C1:C:C(:C(:C:C:1N(:O):O)C1:N:C(:N:C(:N:1)C1:C:C(:C(:C:C:1N(:O):O)C1:C:C(:C(:C:C:1N(:O):O)C(:O):O)N(:O):O)N(:O):O)C1:N:C(:N:C(:N:1)C1:N:C(:N:C(:N:1)C1:C:C(:C(:C:C:1N(:O):O)C1:C:C(:C(:C:C:1N(:O):O)C(:O):O)N(:O):O)N(:O):O)C1:C:C(:C(:C:C:1N(:O):O)C1:C:C(:C(:C:C:1N(:O):O)C(:O):O)N(:O):O)N(:O):O)C1:N:C(:N:C(:N:1)C1:C:C(:C(:C:C:1N(:O):O)C1:C:C(:C(:C:C:1N(:O):O)C(:O):O)N(:O):O)N(:O):O)C1:C:C(:C(:C:C:1N(:O):O)C1:C:C(:C(:C:C:1N(:O):O)C(:O):O)N(:O):O)N(:O):O)N(:O):O)N(:O):O,1
SR_bcs_v1-6c_CdZn_1_Ch_1DoU_Ch_1x1x1,0.19878,0.69984,1.25298,1551.53,1944.04,6.9523,3.9203,16132.29892,,,,560,,256,256,192,C12Cd3H6O13Zn1,0.129032258,6,6c_CdZn_1_Ch,10,O:C(:O)C=CC(:O):O,1
SR_bch_v1-3c_triazine_Ch_v2-3c_triazine_Ch_v3-6c_Mg_1_Ch_ntn_edge_1TrU_Ch_1x1x1,0.38088,0.80206,0.467982,4730.33,2213.71,10.69944,8.12836,32256.42557,,,,672,,240,240,96,C6H1Mg1N2O4,0.076923077,6,6c_Mg_1_Ch,54,O:C(:O)C#CC1:N:C(C#CC(:O):O):N:C(:N:1)C1:N:C(:N:C(:N:1)C1:N:C(C#CC(:O):O):N:C(C#CC(:O):O):N:1)C1:N:C(C#CC(:O):O):N:C(C#CC(:O):O):N:1,1
SR_bch_v1-3c_triazine_Ch_v2-3c_B_Ch_v3-6c_Mg_1_Ch_1B_2F_Ch_ntn_edge_1x1x1,0.24127,0.78868,0.492145,4286.82,2109.74,10.92431,8.84308,44693.89487,,,,1128,,240,240,96,C23F4H9Mg2N1O8,0.044444444,6,6c_Mg_1_Ch,111,O:C(:O)C1:C:C(F):C(:C:C:1F)C1:C:C(:C:C(:C:1)C1:C:C(F):C(:C:C:1F)C(:O):O)C1:N:C(:N:C(:N:1)C1:C:C(:C:C(:C:1)C1:C:C(F):C(:C:C:1F)C(:O):O)C1:C:C(F):C(:C:C:1F)C(:O):O)C1:C:C(:C:C(:C:1)C1:C:C(F):C(:C:C:1F)C(:O):O)C1:C:C(F):C(:C:C:1F)C(:O):O,1
SR_bbf_v1-4c_porphyrin_Ch_v2-4c_In_1_Ch_ntn_edge_2B_2F_Ch_2x2x2,0.14227,0.75566,0.665688,3233.16,2152.27,9.95204,7.14486,53335.83212,,,,1600,,256,256,256,C26F4H9In1N2O8,0.020408163,4,4c_In_1_Ch,"46,26",O:C(:O)C1:C2:C:C:C(:N:2):C(C(:O):O):C2:C:C:C(:[NH]:2):C(C(:O):O):C2:C:C:C(:N:2):C(C(:O):O):C2:C:C:C:1:[NH]:2___O:C(:O)C1:C:C(F):C(:C:C:1F)C1:C:C(F):C(:C:C:1F)C(:O):O,1
SR_bbi_v1-4c_Cd_1_Ch_v2-4c_Cd_1_Ch_1B_2CH3_Ch_ntn_edge_1x2x2,0.08483,0.83746,0.444631,4369.06,1942.62,13.97183,10.69286,76602.92306,,,,1648,,384,384,384,C44Cd3H32O24,0.03,4,4c_Cd_1_Ch,"22,6",CC1:C:C(C(:O):O):C(C):C:C:1C(:O):O___O:C(:O)C(:O):O,1
SR_bch_v1-3c_triazine_Ch_v2-3c_triazine_Ch_v3-6c_Mg_1_Ch_ntn_edge_4B_fused_8H_Ch_1x1x1,0.24335,0.85292,0.319803,5464.93,1747.7,15.38729,13.41844,91122.21966,,,,1728,,240,240,96,C20H9Mg1N2O4,0.028571429,6,6c_Mg_1_Ch,186,O:C(:O)C1:C:C2:C:C:C3:C:C(:C:C4:C:C:C(:C:1):C:2:C:3:4)C1:N:C(:N:C(:N:1)C1:N:C(:N:C(:N:1)C1:N:C(:N:C(:N:1)C1:C:C2:C:C:C3:C:C(:C:C4:C:C:C(:C:1):C:2:C:3:4)C(:O):O)C1:C:C2:C:C:C3:C:C(:C:C4:C:C:C(:C:1):C:2:C:3:4)C(:O):O)C1:N:C(:N:C(:N:1)C1:C:C2:C:C:C3:C:C(:C:C4:C:C:C(:C:1):C:2:C:3:4)C(:O):O)C1:C:C2:C:C:C3:C:C(:C:C4:C:C:C(:C:1):C:2:C:3:4)C(:O):O)C1:C:C2:C:C:C3:C:C(:C:C4:C:C:C(:C:1):C:2:C:3:4)C(:O):O,1
SR_bcg_v1-8c_Co_2_Ch_1B_2CH3_Ch_1x1x1,0.22401,0.67644,0.773271,2501.19,1934.1,8.40561,5.42014,21054.57825,,,,936,,160,160,128,C48Cl1Co4H40N24,0.03539823,8,8c_Co_2_Ch,28,CC1:C:C(C2C:N:N:N:2):C(C):C:C:1C1C:N:N:N:1,1
SR_bce_v1-4c_In_1_Ch_v2-4c_In_1_Ch_4B_fused_8H_Ch_ntn_edge_1x1x1,0.06918,0.87998,0.3059,4916.71,1504.02,29.16604,20.52583,81378.69204,,,,1272,,192,192,192,C92H40In3O24,0.019230769,4,4c_In_1_Ch,"6,30",O:C(:O)C(:O):O___O:C(:O)C1:C:C2:C:C:C3:C:C(:C:C4:C:C:C(:C:1):C:2:C:3:4)C(:O):O,1
SR_bbj_v1-4c_Cd_1_Ch_v2-4c_Cd_1_Ch_ntn_edge_1B_2CH3_Ch_1x2x2,0.09105,0.7908,0.631185,3335.97,2105.62,12.0678,7.94917,45193.53603,,,,1136,,384,384,384,C28Cd3H16O24,0.044117647,4,4c_Cd_1_Ch,"22,6",CC1:C:C(C(:O):O):C(C):C:C:1C(:O):O___O:C(:O)C(:O):O,1
SR_bch_v1-3c_triazine_Ch_v2-3c_triazine_Ch_v3-6c_Mg_1_Ch_ntn_edge_2B_1TrU_Ch_1x1x1,0.19654,0.90214,0.209815,6685.26,1402.67,18.46482,16.29643,129763.5321,,,,1632,,240,240,96,C18H9Mg1N2O4,0.03030303,6,6c_Mg_1_Ch,174,O:C(:O)C1:C:C:C(C#CC2:C:C:C(:C:C:2)C2:N:C(:N:C(:N:2)C2:N:C(:N:C(:N:2)C2:N:C(:N:C(:N:2)C2:C:C:C(C#CC3:C:C:C(:C:C:3)C(:O):O):C:C:2)C2:C:C:C(C#CC3:C:C:C(:C:C:3)C(:O):O):C:C:2)C2:N:C(:N:C(:N:2)C2:C:C:C(C#CC3:C:C:C(:C:C:3)C(:O):O):C:C:2)C2:C:C:C(C#CC3:C:C:C(:C:C:3)C(:O):O):C:C:2)C2:C:C:C(C#CC3:C:C:C(:C:C:3)C(:O):O):C:C:2):C:C:1,1
SR_bch_v1-3c_B_Ch_v2-3c_B_Ch_v3-6c_Mg_1_Ch_1B_4F_Ch_1x1x1,0.17822,0.84614,0.385352,4397.52,1694.59,17.23102,14.23473,79732.72784,,,,1392,,240,240,96,C15F6H3Mg1O4,0.035714286,6,6c_Mg_1_Ch,144,O:C(:O)C1:C(F):C(F):C(C2:C:C(:C:C(:C:2)C2:C(F):C(F):C(C3:C:C(:C:C(:C:3)C3:C(F):C(F):C(C4:C:C(:C:C(:C:4)C4:C(F):C(F):C(C(:O):O):C(F):C:4F)C4:C(F):C(F):C(C(:O):O):C(F):C:4F):C(F):C:3F)C3:C(F):C(F):C(C4:C:C(:C:C(:C:4)C4:C(F):C(F):C(C(:O):O):C(F):C:4F)C4:C(F):C(F):C(C(:O):O):C(F):C:4F):C(F):C:3F):C(F):C:2F)C2:C(F):C(F):C(C(:O):O):C(F):C:2F):C(F):C:1F,1
SR_bbi_v1-4c_In_1_Ch_v2-4c_In_1_Ch_1B_2SH_Ch_ntn_edge_1x2x2,0.08792,0.80544,0.57653,3519.17,2028.9,11.37758,8.34341,66062.65003,,,,1392,,384,384,384,C36H16In3O24S8,0.035714286,4,4c_In_1_Ch,"6,18",O:C(:O)C(:O):O___O:C(:O)C1:C:C(S):C(:C:C:1S)C(:O):O,1
SR_bbg_v1-4c_In_1_Ch_v2-4c_bicyclooctane_Ch_ntn_edge_1B_4F_Ch_2x3x2,0.38644,0.5059,1.37331,224.289,308.017,6.21016,3.82996,23239.65322,,,,1368,,192,192,192,C32F8H8In1O8,0.017857143,4,4c_In_1_Ch,112,O:C(:O)C1=CC23C=C(C(:O):O)C1C(=C2)C1:C(F):C(F):C(C2=CC4(C=C(C(:O):O)C2C(=C4)C(:O):O)C2:C(F):C(F):C(:C(F):C:2F)C24C=C(C(:O):O)C(C(=C2)C(:O):O)C(=C4)C2:C(F):C(F):C(C4=CC5(C=C(C(:O):O)C4C(=C5)C(:O):O)C4:C(F):C(F):C3:C(F):C:4F):C(F):C:2F):C(F):C:1F,1
SR_bcb_v1-4c_1anC_Ch_v2-4c_In_1_Ch_1B_2CN_Ch_1x1x2,0.05991,0.8076,0.4664,3128.92,1459.33,23.00205,20.58697,45992.84325,,,,992,,128,128,128,C37H8In1N8O8,0.016393443,4,4c_In_1_Ch,"172,18",N#CC1:C:C(:C(C#N):C:C:1C(:O):O)C1(C2:C:C(C#N):C(:C:C:2C#N)C(:O):O)C2:C:C(C#N):C(:C:C:2C#N)C(C2:C:C(C#N):C(:C:C:2C#N)C(:O):O)(C2:C:C(C#N):C(:C:C:2C#N)C(:O):O)C2:C:C(C#N):C(:C:C:2C#N)C(C2:C:C(C#N):C(:C:C:2C#N)C(:O):O)(C2:C:C(C#N):C(:C:C:2C#N)C(:O):O)C2:C:C(C#N):C(:C:C:2C#N)C(C2:C:C(C#N):C(:C:C:2C#N)C(:O):O)(C2:C:C(C#N):C(:C:C:2C#N)C(:O):O)C2:C:C(C#N):C1:C:C:2C#N___N#CC1:C:C(C(:O):O):C(C#N):C:C:1C(:O):O,1
SR_bcm_v1-4c_In_1_Ch_v2-4c_1anC_Ch_ntn_edge_1B_4Br_Ch_3x3x2,1.04297,0.15224,3.68674,0,0,1.59387,0.60356,17812.74838,,,,1260,,288,288,288,Br8C18In1O8,0.029411765,4,4c_In_1_Ch,102,O:C(:O)C1(C(:O):O)C2:C(Br):C(Br):C(:C(Br):C:2Br)C(C(:O):O)(C(:O):O)C2:C(Br):C(Br):C(:C(Br):C:2Br)C(C(:O):O)(C(:O):O)C2:C(Br):C(Br):C(:C(Br):C:2Br)C(C(:O):O)(C(:O):O)C2:C(Br):C(Br):C(:C(Br):C:2Br)C(C(:O):O)(C(:O):O)C2:C(Br):C(Br):C(:C(Br):C:2Br)C(C(:O):O)(C(:O):O)C2:C(Br):C(Br):C1:C(Br):C:2Br,1
SR_bcs_v1-6c_CdZn_1_Ch_1B_2CN_Ch_1x1x1,0.15105,0.67468,1.06156,1650.99,1752.63,7.15467,4.36922,26555.71221,,,,944,,256,256,192,C30Cd3H6N6O13Zn1,0.072727273,6,6c_CdZn_1_Ch,18,N#CC1:C:C(C(:O):O):C(C#N):C:C:1C(:O):O,1
SR_bch_v1-3c_triazine_Ch_v2-3c_pyrrole_Ch_v3-6c_Mg_1_Ch_2B_2SH_Ch_ntn_edge_1x1x1,0.12829,0.67746,0.744005,1995.55,1484.7,13.2844,9.24094,31990.54958,,,,1176,,240,240,96,C21H12Mg2N2O8S4,0.042553191,6,6c_Mg_1_Ch,117,O:C(:O)C1:C:C:C(C2:C:C(S):C(:C:C:2S)C2:C:C(S):C(:C:C:2S)C2:N:C(:N:C(:N:2)C2:C:C(S):C(:C:C:2S)C2:C:C(S):C(:C:C:2S)C2:C:C:C(C(:O):O):N:2C(:O):O)C2:C:C(S):C(:C:C:2S)C2:C:C(S):C(:C:C:2S)C2:C:C:C(C(:O):O):N:2C(:O):O):N:1C(:O):O,1
SR_bch_v1-3c_triazine_Ch_v2-3c_B_Ch_v3-6c_Mg_1_Ch_ntn_edge_2B_2NH2_Ch_1x1x1,0.11751,0.83496,0.341529,5459.01,1864.41,14.83705,11.74689,87784.49014,,,,1992,,240,240,96,C35H29Mg2N9O8,0.024691358,6,6c_Mg_1_Ch,219,NC1:C:C(:C(N):C:C:1C(:O):O)C1:C:C(N):C(:C:C:1N)C1:C:C(:C:C(:C:1)C1:C:C(N):C(:C:C:1N)C1:C:C(N):C(:C:C:1N)C(:O):O)C1:N:C(:N:C(:N:1)C1:C:C(:C:C(:C:1)C1:C:C(N):C(:C:C:1N)C1:C:C(N):C(:C:C:1N)C(:O):O)C1:C:C(N):C(:C:C:1N)C1:C:C(N):C(:C:C:1N)C(:O):O)C1:C:C(:C:C(:C:1)C1:C:C(N):C(:C:C:1N)C1:C:C(N):C(:C:C:1N)C(:O):O)C1:C:C(N):C(:C:C:1N)C1:C:C(N):C(:C:C:1N)C(:O):O,1
SR_bch_v1-3c_triazine_Ch_v2-3c_pyrrole_Ch_v3-6c_Mg_1_Ch_ntn_edge_1B_2thiophene_Ch_1x1x1,0.10927,0.8157,0.431009,4513.17,1945.22,12.80689,9.8857,64105.01007,,,,1368,,240,240,96,C29H12Mg2N2O8S4,0.036363636,6,6c_Mg_1_Ch,141,O:C(:O)C1:C:C2:C:C3:S:C(:C:C:3:C:C:2:S:1)C1:C:C:C(C2:C:C3:C:C4:S:C(:C:C:4:C:C:3:S:2)C(:O):O):N:1C1:N:C(:N:C(:N:1)N1:C(:C:C:C:1C1:C:C2:C:C3:S:C(:C:C:3:C:C:2:S:1)C(:O):O)C1:C:C2:C:C3:S:C(:C:C:3:C:C:2:S:1)C(:O):O)N1:C(:C:C:C:1C1:C:C2:C:C3:S:C(:C:C:3:C:C:2:S:1)C(:O):O)C1:C:C2:C:C3:S:C(:C:C:3:C:C:2:S:1)C(:O):O,1
SR_bcs_v1-6c_CdZn_1_Ch_1TrU_Ch_1x1x1,0.19544,0.73044,1.16295,2136.1,2484.16,7.4458,4.97416,17242.83255,,,,464,,256,256,192,C12Cd3O13Zn1,0.16,6,6c_CdZn_1_Ch,8,O:C(:O)C#CC(:O):O,1
SR_bch_v1-3c_triazine_Ch_v2-3c_triazine_Ch_v3-6c_Mg_1_Ch_1B_2CF3_Ch_ntn_edge_1x1x1,0.12013,0.73184,0.695258,2994.15,2081.7,9.90895,7.56942,43273.03004,,,,1344,,240,240,96,C12F6H3Mg1N2O4,0.037037037,6,6c_Mg_1_Ch,138,O:C(:O)C1:C:C(:C(:C:C:1C(F)(F)F)C1:N:C(:N:C(:N:1)C1:C:C(:C(:C:C:1C(F)(F)F)C(:O):O)C(F)(F)F)C1:N:C(:N:C(:N:1)C1:N:C(:N:C(:N:1)C1:C:C(:C(:C:C:1C(F)(F)F)C(:O):O)C(F)(F)F)C1:C:C(:C(:C:C:1C(F)(F)F)C(:O):O)C(F)(F)F)C1:N:C(:N:C(:N:1)C1:C:C(:C(:C:C:1C(F)(F)F)C(:O):O)C(F)(F)F)C1:C:C(:C(:C:C:1C(F)(F)F)C(:O):O)C(F)(F)F)C(F)(F)F,1
SR_bch_v1-3c_triazine_Ch_v2-3c_triazine_Ch_v3-6c_Mg_1_Ch_2B_2Br_Ch_ntn_edge_1x1x1,0.1105,0.74612,0.760017,2112.43,1605.49,15.35001,9.74268,41875.64774,,,,1056,,240,240,96,Br2C10H3Mg1N2O4,0.047619048,6,6c_Mg_1_Ch,102,O:C(:O)C1:N:C(:N:C(:N:1)C1:C:C(Br):C(:C:C:1Br)C1:C:C(Br):C(:C:C:1Br)C1:N:C(:N:C(:N:1)C1:C:C(Br):C(:C:C:1Br)C1:C:C(Br):C(:C:C:1Br)C1:N:C(:N:C(:N:1)C(:O):O)C(:O):O)C1:C:C(Br):C(:C:C:1Br)C1:C:C(Br):C(:C:C:1Br)C1:N:C(:N:C(:N:1)C(:O):O)C(:O):O)C(:O):O,1
SR_bch_v1-3c_B_Ch_v2-3c_B_Ch_v3-6c_Mg_1_Ch_1DoU_Ch_1TrU_Ch_1x1x1,0.31098,0.8423,0.339422,5445.08,1848.18,14.04826,11.71538,47067.17521,,,,864,,240,240,96,C9H4Mg1O4,0.058823529,6,6c_Mg_1_Ch,78,O:C(:O)C#CC1:C:C(C#CC(:O):O):C:C(C=CC2:C:C(C=CC3:C:C(C#CC(:O):O):C:C(C#CC(:O):O):C:3):C:C(C=CC3:C:C(C#CC(:O):O):C:C(C#CC(:O):O):C:3):C:2):C:1,1
SR_bch_v1-3c_B_Ch_v2-3c_B_Ch_v3-6c_Mg_1_Ch_ntn_edge_1B_2NH2_Ch_1x1x1,0.14604,0.77876,0.469796,4652.59,2185.77,10.90655,8.52905,45726.76514,,,,1344,,240,240,96,C12H9Mg1N2O4,0.037037037,6,6c_Mg_1_Ch,138,NC1:C:C(C2:C:C(:C:C(:C:2)C2:C:C(N):C(:C:C:2N)C(:O):O)C2:C:C(:C:C(:C:2)C2:C:C(:C:C(:C:2)C2:C:C(N):C(:C:C:2N)C(:O):O)C2:C:C(N):C(:C:C:2N)C(:O):O)C2:C:C(:C:C(:C:2)C2:C:C(N):C(:C:C:2N)C(:O):O)C2:C:C(N):C(:C:C:2N)C(:O):O):C(N):C:C:1C(:O):O,1
SR_bcg_v1-8c_Co_1_Ch_1TrU_Ch_2x2x2,0.31493,0.61586,1.23233,1439.88,1774.41,6.21059,4.50657,60415.64024,,,,2368,,1280,1280,1024,C16Co4O17,0.121212121,8,8c_Co_1_Ch,8,O:C(:O)C#CC(:O):O,1
SR_bcs_v1-6c_CdZn_1_Ch_1B_2NO2_Ch_1x1x1,0.13858,0.65324,1.17871,925.75,1091.19,6.49451,4.01493,26619.34498,,,,1040,,256,256,192,C24Cd3H6N6O25Zn1,0.06557377,6,6c_CdZn_1_Ch,20,O:C(:O)C1:C:C(:C(:C:C:1N(:O):O)C(:O):O)N(:O):O,1
SR_bbh_v1-4c_Cd_1_Ch_v2-4c_1anC_Ch_ntn_edge_2B_2CF3_Ch_1x2x2,0.24305,0.48112,1.48899,443.536,660.418,6.34269,4.03291,20719.12054,,,,1264,,128,128,128,C38Cd1F24H8O8,0.012820513,4,4c_Cd_1_Ch,156,O:C(:O)C1(C(:O):O)C2:C:C(:C(:C:C:2C(F)(F)F)C2:C:C(:C(:C:C:2C(F)(F)F)C(C(:O):O)(C(:O):O)C2:C:C(:C(:C:C:2C(F)(F)F)C2:C:C(:C(:C:C:2C(F)(F)F)C(C(:O):O)(C(:O):O)C2:C:C(:C(:C:C:2C(F)(F)F)C2:C:C(:C(:C:C:2C(F)(F)F)C(C(:O):O)(C(:O):O)C2:C:C(:C(:C:C:2C(F)(F)F)C2:C:C(:C1:C:C:2C(F)(F)F)C(F)(F)F)C(F)(F)F)C(F)(F)F)C(F)(F)F)C(F)(F)F)C(F)(F)F)C(F)(F)F)C(F)(F)F,1
SR_bbh_v1-4c_In_1_Ch_v2-4c_In_1_Ch_2B_4H_Ch_ntn_edge_1x2x2,0.12765,0.85092,0.446073,4258.7,1899.69,15.36473,12.56902,70102.2479,,,,1264,,384,384,384,C36H16In3O24,0.039473684,4,4c_In_1_Ch,"6,26",O:C(:O)C(:O):O___O:C(:O)C1:C:C:C(:C:C:1)C1:C:C:C(:C:C:1)C(:O):O,1
SR_bbg_v1-4c_In_1_Ch_v2-4c_bicyclooctane_Ch_1B_2CH3_Ch_2x2x1,0.19727,0.74022,0.543332,4244,2305.9,8.85087,6.65972,27289.49319,,,,1064,,64,64,64,C68H56In1O8,0.007575758,4,4c_In_1_Ch,264,CC1:C:C2C3=CC4(C=C(C5:C:C(C):C(:C:C:5C)C(:O):O)C3C(=C4)C3:C:C(C):C(:C:C:3C)C(:O):O)C3:C:C(C):C(:C:C:3C)C34C=C(C5:C:C(C):C(:C:C:5C)C5=CC6(C=C(C7:C:C(C):C(:C:C:7C)C(:O):O)C5C(=C6)C5:C:C(C):C(:C:C:5C)C(:O):O)C5:C:C(C):C(:C:C:5C)C56C=C(C:1:C:C:2C)C(C(=C5)C1:C:C(C):C(:C:C:1C)C(:O):O)C(=C6)C1:C:C(C):C(:C:C:1C)C(:O):O)C(C(=C3)C1:C:C(C):C(:C:C:1C)C(:O):O)C(=C4)C1:C:C(C):C(:C:C:1C)C(:O):O,1
SR_bch_v1-3c_B_Ch_v2-3c_pyrrole_Ch_v3-6c_Mg_1_Ch_ntn_edge_2x2x2,0.52187,0.59012,0.962814,1287.33,1239.46,8.73766,7.37573,104559.5444,,,,4992,,1920,1920,768,C10H5Mg2N1O8,0.083333333,6,6c_Mg_1_Ch,48,O:C(:O)C1:C:C:C(C2:C:C(:C:C(:C:2)C2:C:C:C(C(:O):O):N:2C(:O):O)C2:C:C:C(C(:O):O):N:2C(:O):O):N:1C(:O):O,1
SR_bch_v1-3c_B_Ch_v2-3c_B_Ch_v3-6c_Mg_1_Ch_1B_4CN_Ch_ntn_edge_1x1x1,0.28656,0.69854,0.663309,2530.89,1678.76,10.72474,7.8673,30216.9979,,,,1008,,240,240,96,C11H3Mg1N2O4,0.05,6,6c_Mg_1_Ch,96,N#CC1:C(C#N):C(C2:C:C(:C:C(:C:2)C2:C(C#N):C(C#N):C(C3:C:C(:C:C(:C:3)C(:O):O)C(:O):O):C(C#N):C:2C#N)C2:C(C#N):C(C#N):C(C3:C:C(:C:C(:C:3)C(:O):O)C(:O):O):C(C#N):C:2C#N):C(C#N):C(C#N):C:1C1:C:C(:C:C(:C:1)C(:O):O)C(:O):O,1
SR_bbg_v1-4c_In_1_Ch_v2-4c_In_1_Ch_1B_2CN_Ch_ntn_edge_2x2x2,0.18879,0.6891,0.977588,1859.33,1817.66,9.80398,5.80164,30570.26276,,,,1008,,384,384,384,C28H4In3N4O24,0.05,4,4c_In_1_Ch,"18,6",N#CC1:C:C(C(:O):O):C(C#N):C:C:1C(:O):O___O:C(:O)C(:O):O,1