name,k,VF,density,ASA_grav,ASA_vol,LPD,PLD,volume,,,,N_atoms,,N_metal_containing_bonds,N_metal_nonmetal_bonds,N_metal_linker_bonds,formula,metal_nonmetal_ratio,metal_node_connectivity,metal_node_name,N_atoms_per_linker,linker_SMILES,N_ccs
SR_bcf_v1-4c_bicyclooctane_Ch_v2-4c_Cd_1_Ch_2B_1DoU_Ch_ntn_edge_1x1x1,0.04522,0.93824,0.136388,6284.5,857.13,47.37849,43.95674,179881.0682,,,,1552,,128,128,128,C54Cd1H34O8,0.010416667,4,4c_Cd_1_Ch,"30,408",O:C(:O)C1:C:C:C(C=CC2:C:C:C(:C:C:2)C(:O):O):C:C:1___O:C(:O)C1=CC23C=C4C5:C:C:C(C=CC6:C:C:C(:C:C:6)C6=CC78C=C(C(:O):O)C6C(=C7)C6:C:C:C(C=CC7:C:C:C(:C:C:7)C7=CC9%10C=C(C(:O):O)C7C(=C9)C7:C:C:C(C=CC9:C:C:C(:C:C:9)C9=CC%11(C=C(C(:O):O)C9C(=C%11)C9:C:C:C(C=CC%11:C:C:C(:C:C:%11)C(=C2)C14):C:C:9)C1:C:C:C(C=CC2:C:C:C(:C:C:2)C24C=C(C(:O):O)C9C(=C2)C2:C:C:C(C=CC%11:C:C:C(:C:C:%11)C%11=CC%12(C=C(C(:O):O)C%11C(=C%12)C%11:C:C:C(C=CC%12:C:C:C(:C:C:%12)C%12=CC%13(C=C(C(:O):O)C%12C(=C%13)C%12:C:C:C(C=CC%13:C:C:C(:C:C:%13)C%13=CC%14(C=C(C(:O):O)C%13C(=C%14)C%13:C:C:C(C=CC%14:C:C:C(:C:C:%14)C9=C4):C:C:%13)C4:C:C:C(C=CC9:C:C:C%10:C:C:9):C:C:4):C:C:%12)C4:C:C:C(C=CC9:C:C:C8:C:C:9):C:C:4):C:C:%11)C4:C:C:C(C=CC8:C:C:C3:C:C:8):C:C:4):C:C:2):C:C:1):C:C:7):C:C:6):C:C:5,1
SR_bch_v1-3c_triazine_Ch_v2-3c_B_Ch_v3-6c_Mg_1_Ch_2B_2SH_Ch_ntn_edge_1x1x1,0.09962,0.7539,0.55701,2960,1648.75,14.55576,10.26666,43517.85302,,,,1224,,240,240,96,C23H13Mg2N1O8S4,0.040816327,6,6c_Mg_1_Ch,123,O:C(:O)C1:C:C(:C:C(:C:1)C1:C:C(S):C(:C:C:1S)C1:C:C(S):C(:C:C:1S)C1:N:C(:N:C(:N:1)C1:C:C(S):C(:C:C:1S)C1:C:C(S):C(:C:C:1S)C1:C:C(:C:C(:C:1)C(:O):O)C(:O):O)C1:C:C(S):C(:C:C:1S)C1:C:C(S):C(:C:C:1S)C1:C:C(:C:C(:C:1)C(:O):O)C(:O):O)C(:O):O,1
SR_bch_v1-3c_triazine_Ch_v2-3c_pyrrole_Ch_v3-6c_Mg_1_Ch_ntn_edge_2x2x2,0.5633,0.58506,0.993708,1209.52,1201.91,8.71607,7.75927,101627.4191,,,,4800,,1920,1920,768,C9H4Mg2N2O8,0.086956522,6,6c_Mg_1_Ch,45,O:C(:O)C1:C:C:C(C2:N:C(:N:C(:N:2)C2:C:C:C(C(:O):O):N:2C(:O):O)C2:C:C:C(C(:O):O):N:2C(:O):O):N:1C(:O):O,1
SR_bbg_v1-4c_Cd_1_Ch_v2-4c_bicyclooctane_Ch_1B_2CH3_Ch_2x2x1,0.16388,0.74944,0.520661,4383.1,2282.11,9.91774,7.68218,28444.33047,,,,1064,,64,64,64,C68Cd1H56O8,0.007575758,4,4c_Cd_1_Ch,264,CC1:C:C2C3=CC4(C=C(C5:C:C(C):C(:C:C:5C)C(:O):O)C3C(=C4)C3:C:C(C):C(:C:C:3C)C(:O):O)C3:C:C(C):C(:C:C:3C)C34C=C(C5:C:C(C):C(:C:C:5C)C5=CC6(C=C(C7:C:C(C):C(:C:C:7C)C(:O):O)C5C(=C6)C5:C:C(C):C(:C:C:5C)C(:O):O)C5:C:C(C):C(:C:C:5C)C56C=C(C:1:C:C:2C)C(C(=C5)C1:C:C(C):C(:C:C:1C)C(:O):O)C(=C6)C1:C:C(C):C(:C:C:1C)C(:O):O)C(C(=C3)C1:C:C(C):C(:C:C:1C)C(:O):O)C(=C4)C1:C:C(C):C(:C:C:1C)C(:O):O,1
SR_bbk_v1-4c_In_1_Ch_v2-4c_In_1_Ch_ntn_edge_1B_2SH_Ch_1x2x2,0.12202,0.75586,0.702151,2863.25,2010.43,13.74817,12.29213,29775.44517,,,,792,,192,192,192,C42H20In3O24S10,0.03125,4,4c_In_1_Ch,"6,18",O:C(:O)C(:O):O___O:C(:O)C1:C:C(S):C(:C:C:1S)C(:O):O,1
SR_bbr_v1-4c_Cd_1_Ch_v2-4c_Cd_1_Ch_ntn_edge_1B_2CF3_Ch_1x1x3,0.05778,0.79696,0.617193,3224.25,1989.98,18.1825,16.98526,39172.28281,,,,888,,192,192,192,C16Cd1F9H3O8,0.027777778,4,4c_Cd_1_Ch,"6,22",O:C(:O)C(:O):O___O:C(:O)C1:C:C(:C(:C:C:1C(F)(F)F)C(:O):O)C(F)(F)F,1
SR_bch_v1-3c_B_Ch_v2-3c_B_Ch_v3-6c_Zr_1_Ch_1TrU_Ch_ntn_edge_1x1x1,0.13456,0.68326,0.891286,2080.14,1854,9.99042,6.98732,22754.92661,,,,864,,384,384,96,C18H17O16Zr3,0.058823529,6,6c_Zr_1_Ch,60,O:C(:O)C1:C:C(C#CC2:C:C(C#CC3:C:C(:C:C(:C:3)C(:O):O)C(:O):O):C:C(C#CC3:C:C(:C:C(:C:3)C(:O):O)C(:O):O):C:2):C:C(:C:1)C(:O):O,1
SR_bch_v1-3c_B_Ch_v2-3c_B_Ch_v3-6c_Mg_1_Ch_1B_2NO2_Ch_1x1x1,0.1675,0.82252,0.409211,4454.66,1822.9,15.6644,13.37397,80353.8531,,,,1680,,240,240,96,C15H6Mg1N3O10,0.029411765,6,6c_Mg_1_Ch,180,O:C(:O)C1:C:C(:C(:C:C:1N(:O):O)C1:C:C(:C:C(:C:1)C1:C:C(:C(:C:C:1N(:O):O)C1:C:C(:C:C(:C:1)C1:C:C(:C(:C:C:1N(:O):O)C1:C:C(:C:C(:C:1)C1:C:C(:C(:C:C:1N(:O):O)C(:O):O)N(:O):O)C1:C:C(:C(:C:C:1N(:O):O)C(:O):O)N(:O):O)N(:O):O)C1:C:C(:C(:C:C:1N(:O):O)C1:C:C(:C:C(:C:1)C1:C:C(:C(:C:C:1N(:O):O)C(:O):O)N(:O):O)C1:C:C(:C(:C:C:1N(:O):O)C(:O):O)N(:O):O)N(:O):O)N(:O):O)C1:C:C(:C(:C:C:1N(:O):O)C(:O):O)N(:O):O)N(:O):O,1
SR_bch_v1-3c_triazine_Ch_v2-3c_triazine_Ch_v3-6c_Mg_1_Ch_2B_1DoU_Ch_1x1x1,0.1539,0.95046,0.104826,7453.14,781.283,31.8099,27.78449,329023.6107,,,,2304,,240,240,96,C25H16Mg1N2O4,0.021276596,6,6c_Mg_1_Ch,258,O:C(:O)C1:C:C:C(C=CC2:C:C:C(:C:C:2)C2:N:C(:N:C(:N:2)C2:C:C:C(C=CC3:C:C:C(:C:C:3)C3:N:C(:N:C(:N:3)C3:C:C:C(C=CC4:C:C:C(:C:C:4)C4:N:C(:N:C(:N:4)C4:C:C:C(C=CC5:C:C:C(:C:C:5)C(:O):O):C:C:4)C4:C:C:C(C=CC5:C:C:C(:C:C:5)C(:O):O):C:C:4):C:C:3)C3:C:C:C(C=CC4:C:C:C(:C:C:4)C4:N:C(:N:C(:N:4)C4:C:C:C(C=CC5:C:C:C(:C:C:5)C(:O):O):C:C:4)C4:C:C:C(C=CC5:C:C:C(:C:C:5)C(:O):O):C:C:4):C:C:3):C:C:2)C2:C:C:C(C=CC3:C:C:C(:C:C:3)C(:O):O):C:C:2):C:C:1,1
SR_bcq_v1-4c_1anC_Ch_v2-4c_Cd_1_Ch_1B_2SH_Ch_ntn_edge_2x2x1,0.31124,0.6114,1.26862,843.236,1069.75,7.08256,3.85453,30542.56575,,,,1248,,512,512,512,C15Cd2H4O16S2,0.054054054,4,4c_Cd_1_Ch,"6,76",O:C(:O)C(:O):O___O:C(:O)C1(C(:O):O)C2:C:C(S):C(:C:C:2S)C(C(:O):O)(C(:O):O)C2:C:C(S):C(:C:C:2S)C(C(:O):O)(C(:O):O)C2:C:C(S):C(:C:C:2S)C(C(:O):O)(C(:O):O)C2:C:C(S):C1:C:C:2S,1
SR_bbm_v1-4c_In_1_Ch_v2-4c_In_1_Ch_1B_2OH_Ch_1x1x2,0.07823,0.87484,0.359852,4532.19,1630.92,17.22617,12.60765,57382.86004,,,,888,,192,192,192,C16H8In1O12,0.027777778,4,4c_In_1_Ch,18,O:C(:O)C1:C:C(O):C(:C:C:1O)C(:O):O,1
SR_bch_v1-3c_triazine_Ch_v2-3c_B_Ch_v3-6c_Mg_1_Ch_2B_2Br_Ch_1x1x1,0.09478,0.90444,0.318682,3830.48,1220.71,24.5675,20.99458,216484.6174,,,,2088,,240,240,96,Br12C47H17Mg2N1O8,0.023529412,6,6c_Mg_1_Ch,231,O:C(:O)C1:C:C(Br):C(:C:C:1Br)C1:C:C(Br):C(:C:C:1Br)C1:C:C(:C:C(:C:1)C1:C:C(Br):C(:C:C:1Br)C1:C:C(Br):C(:C:C:1Br)C1:N:C(:N:C(:N:1)C1:C:C(Br):C(:C:C:1Br)C1:C:C(Br):C(:C:C:1Br)C1:C:C(:C:C(:C:1)C1:C:C(Br):C(:C:C:1Br)C1:C:C(Br):C(:C:C:1Br)C(:O):O)C1:C:C(Br):C(:C:C:1Br)C1:C:C(Br):C(:C:C:1Br)C(:O):O)C1:C:C(Br):C(:C:C:1Br)C1:C:C(Br):C(:C:C:1Br)C1:C:C(:C:C(:C:1)C1:C:C(Br):C(:C:C:1Br)C1:C:C(Br):C(:C:C:1Br)C(:O):O)C1:C:C(Br):C(:C:C:1Br)C1:C:C(Br):C(:C:C:1Br)C(:O):O)C1:C:C(Br):C(:C:C:1Br)C1:C:C(Br):C(:C:C:1Br)C(:O):O,1
SR_bch_v1-3c_triazine_Ch_v2-3c_triazine_Ch_v3-6c_Mg_1_Ch_ntn_edge_2B_4CN_Ch_1x1x1,0.1094,0.7212,0.624859,2819.04,1761.5,12.24924,9.15853,43562.55609,,,,1248,,240,240,96,C14H1Mg1N6O4,0.04,6,6c_Mg_1_Ch,126,N#CC1:C(C#N):C(:C(C#N):C(C#N):C:1C1:N:C(:N:C(:N:1)C(:O):O)C(:O):O)C1:C(C#N):C(C#N):C(C2:N:C(:N:C(:N:2)C2:C(C#N):C(C#N):C(:C(C#N):C:2C#N)C2:C(C#N):C(C#N):C(C3:N:C(:N:C(:N:3)C(:O):O)C(:O):O):C(C#N):C:2C#N)C2:C(C#N):C(C#N):C(:C(C#N):C:2C#N)C2:C(C#N):C(C#N):C(C3:N:C(:N:C(:N:3)C(:O):O)C(:O):O):C(C#N):C:2C#N):C(C#N):C:1C#N,1
SR_bch_v1-3c_B_Ch_v2-3c_B_Ch_v3-6c_Mg_1_Ch_1B_2CH3_Ch_ntn_edge_1x1x1,0.14985,0.7315,0.569552,3361.53,1914.56,11.36927,9.11802,30154.26872,,,,1056,,240,240,96,C10H7Mg1O4,0.047619048,6,6c_Mg_1_Ch,102,CC1:C:C(C2:C:C(:C:C(:C:2)C2:C:C(C):C(:C:C:2C)C2:C:C(:C:C(:C:2)C(:O):O)C(:O):O)C2:C:C(C):C(:C:C:2C)C2:C:C(:C:C(:C:2)C(:O):O)C(:O):O):C(C):C:C:1C1:C:C(:C:C(:C:1)C(:O):O)C(:O):O,1
SR_bbn_v1-4c_ethene_Ch_v2-4c_In_1_Ch_1B_2NO2_Ch_ntn_edge_1x1x1,0.06967,0.78214,0.62643,3043.52,1906.56,14.82799,9.70689,26934.60268,,,,672,,128,128,128,C17H4In1N4O16,0.024390244,4,4c_In_1_Ch,"6,70",O:C(:O)C(:O):O___O:C(:O)C1:C:C(:C(:C:C:1N(:O):O)C(=C(C1:C:C(:C(:C:C:1N(:O):O)C(:O):O)N(:O):O)C1:C:C(:C(:C:C:1N(:O):O)C(:O):O)N(:O):O)C1:C:C(:C(:C:C:1N(:O):O)C(:O):O)N(:O):O)N(:O):O,1
SR_bce_v1-4c_1anC_Ch_v2-4c_In_1_Ch_ntn_edge_1B_2CN_Ch_1x1x2,0.12352,0.72608,0.730425,2147.03,1568.24,14.39769,12.96746,20628.67589,,,,624,,128,128,128,C22H4In1N4O8,0.026315789,4,4c_In_1_Ch,"128,6",N#CC1:C:C(:C(C#N):C:C:1C(:O):O)C12C3(C4:C:C(C#N):C(:C:C:4C#N)C(:O):O)C4(C5:C:C(C#N):C(:C:C:5C#N)C(:O):O)C1(C1:C:C(C#N):C(:C:C:1C#N)C(:O):O)C1(C5:C:C(C#N):C(:C:C:5C#N)C(:O):O)C2(C2:C:C(C#N):C(:C:C:2C#N)C(:O):O)C3(C2:C:C(C#N):C(:C:C:2C#N)C(:O):O)C41C1:C:C(C#N):C(:C:C:1C#N)C(:O):O___O:C(:O)C(:O):O,1
SR_bcg_v1-8c_Zr_1_Ch_1B_2SH_Ch_1x2x2,0.13631,0.56812,1.26346,933.213,1179.08,7.44685,4.05389,72996.23831,,,,3520,,1536,1536,512,C16H16O16S4Zr3,0.057692308,8,8c_Zr_1_Ch,18,O:C(:O)C1:C:C(S):C(:C:C:1S)C(:O):O,1
SR_bce_v1-4c_In_1_Ch_v2-4c_1anC_Ch_ntn_edge_2B_2F_Ch_1x1x1,0.11864,0.7524,0.749717,1971.58,1478.13,18.59766,13.65951,18493.3059,,,,536,,128,128,128,C33F8H8In2O16,0.030769231,4,4c_In_1_Ch,"6,376",O:C(:O)C(:O):O___O:C(:O)C1:C:C(F):C(:C:C:1F)C1:C:C(F):C(:C:C:1F)C1(C2:C:C(F):C(:C:C:2F)C2:C:C(F):C(:C:C:2F)C(:O):O)C(C2:C:C(F):C(:C:C:2F)C2:C:C(F):C(:C:C:2F)C(:O):O)(C2:C:C(F):C(:C:C:2F)C2:C:C(F):C(:C:C:2F)C(:O):O)C(C2:C:C(F):C(:C:C:2F)C2:C:C(F):C(:C:C:2F)C(:O):O)(C2:C:C(F):C(:C:C:2F)C2:C:C(F):C(:C:C:2F)C(:O):O)C(C2:C:C(F):C(:C:C:2F)C2:C:C(F):C(:C:C:2F)C(:O):O)(C2:C:C(F):C(:C:C:2F)C2:C:C(F):C(:C:C:2F)C(:O):O)C(C2:C:C(F):C(:C:C:2F)C2:C:C(F):C(:C:C:2F)C(:O):O)(C2:C:C(F):C(:C:C:2F)C2:C:C(F):C(:C:C:2F)C(:O):O)C(C2:C:C(F):C(:C:C:2F)C2:C:C(F):C(:C:C:2F)C(:O):O)(C2:C:C(F):C(:C:C:2F)C2:C:C(F):C(:C:C:2F)C(:O):O)C(C2:C:C(F):C(:C:C:2F)C2:C:C(F):C(:C:C:2F)C(:O):O)(C2:C:C(F):C(:C:C:2F)C2:C:C(F):C(:C:C:2F)C(:O):O)C1(C1:C:C(F):C(:C:C:1F)C1:C:C(F):C(:C:C:1F)C(:O):O)C1:C:C(F):C(:C:C:1F)C1:C:C(F):C(:C:C:1F)C(:O):O,1
SR_bch_v1-3c_triazine_Ch_v2-3c_triazine_Ch_v3-6c_Mg_1_Ch_2B_2Br_Ch_1x1x1,0.10383,0.90452,0.322033,3731.07,1201.53,23.94228,20.5534,214598.7621,,,,2016,,240,240,96,Br6C22H7Mg1N2O4,0.024390244,6,6c_Mg_1_Ch,222,O:C(:O)C1:C:C(Br):C(:C:C:1Br)C1:C:C(Br):C(:C:C:1Br)C1:N:C(:N:C(:N:1)C1:C:C(Br):C(:C:C:1Br)C1:C:C(Br):C(:C:C:1Br)C1:N:C(:N:C(:N:1)C1:C:C(Br):C(:C:C:1Br)C1:C:C(Br):C(:C:C:1Br)C1:N:C(:N:C(:N:1)C1:C:C(Br):C(:C:C:1Br)C1:C:C(Br):C(:C:C:1Br)C(:O):O)C1:C:C(Br):C(:C:C:1Br)C1:C:C(Br):C(:C:C:1Br)C(:O):O)C1:C:C(Br):C(:C:C:1Br)C1:C:C(Br):C(:C:C:1Br)C1:N:C(:N:C(:N:1)C1:C:C(Br):C(:C:C:1Br)C1:C:C(Br):C(:C:C:1Br)C(:O):O)C1:C:C(Br):C(:C:C:1Br)C1:C:C(Br):C(:C:C:1Br)C(:O):O)C1:C:C(Br):C(:C:C:1Br)C1:C:C(Br):C(:C:C:1Br)C(:O):O,1
SR_bca_v1-4c_In_1_Ch_v2-4c_1anC_Ch_1B_2indole_Ch_1x1x1,0.05612,0.93216,0.170176,5560.69,946.297,62.39731,60.54224,208183.8991,,,,1620,,192,192,192,C69H36In2N12O16,0.015037594,4,4c_In_1_Ch,"24,366",O:C(:O)C1:C:C2:C:C3:[NH]:C(:C:C:3:C:C:2:[NH]:1)C(:O):O___O:C(:O)C1:C:C2:C:C3:[NH]:C(:C:C:3:C:C:2:[NH]:1)C1(C2:C:C3:C:C4:[NH]:C(:C:C:4:C:C:3:[NH]:2)C(:O):O)C2:C:C3:C:C4:[NH]:C(:C:C:4:C:C:3:[NH]:2)C(C2:C:C3:C:C4:[NH]:C(:C:C:4:C:C:3:[NH]:2)C(:O):O)(C2:C:C3:C:C4:[NH]:C(:C:C:4:C:C:3:[NH]:2)C(:O):O)C2:C:C3:C:C4:[NH]:C(:C:C:4:C:C:3:[NH]:2)C(C2:C:C3:C:C4:[NH]:C(:C:C:4:C:C:3:[NH]:2)C(:O):O)(C2:C:C3:C:C4:[NH]:C(:C:C:4:C:C:3:[NH]:2)C(:O):O)C2:C:C3:C:C4:[NH]:C(:C:C:4:C:C:3:[NH]:2)C(C2:C:C3:C:C4:[NH]:C(:C:C:4:C:C:3:[NH]:2)C(:O):O)(C2:C:C3:C:C4:[NH]:C(:C:C:4:C:C:3:[NH]:2)C(:O):O)C2:C:C3:C:C4:[NH]:C(:C:C:4:C:C:3:[NH]:2)C(C2:C:C3:C:C4:[NH]:C(:C:C:4:C:C:3:[NH]:2)C(:O):O)(C2:C:C3:C:C4:[NH]:C(:C:C:4:C:C:3:[NH]:2)C(:O):O)C2:C:C3:C:C4:[NH]:C(:C:C:4:C:C:3:[NH]:2)C(C2:C:C3:C:C4:[NH]:C(:C:C:4:C:C:3:[NH]:2)C(:O):O)(C2:C:C3:C:C4:[NH]:C(:C:C:4:C:C:3:[NH]:2)C(:O):O)C2:C:C3:C:C4:[NH]:C1:C:C:4:C:C:3:[NH]:2,1
SR_bbz_v1-4c_1anC_Ch_v2-4c_In_1_Ch_2B_4H_Ch_1x1x2,0.05749,0.93884,0.136188,6094.82,830.043,64.91477,62.06155,315491.4012,,,,2256,,192,192,192,C53H32In1O8,0.010752688,4,4c_In_1_Ch,"26,268",O:C(:O)C1:C:C:C(:C:C:1)C1:C:C:C(:C:C:1)C(:O):O___O:C(:O)C1:C:C:C(:C:C:1)C1:C:C:C(:C:C:1)C1(C2:C:C:C(:C:C:2)C2:C:C:C(:C:C:2)C(:O):O)C2:C:C:C(:C:C:2)C2:C:C:C(:C:C:2)C(C2:C:C:C(:C:C:2)C2:C:C:C(:C:C:2)C(:O):O)(C2:C:C:C(:C:C:2)C2:C:C:C(:C:C:2)C(:O):O)C2:C:C:C(:C:C:2)C2:C:C:C(:C:C:2)C(C2:C:C:C(:C:C:2)C2:C:C:C(:C:C:2)C(:O):O)(C2:C:C:C(:C:C:2)C2:C:C:C(:C:C:2)C(:O):O)C2:C:C:C(:C:C:2)C2:C:C:C(:C:C:2)C(C2:C:C:C(:C:C:2)C2:C:C:C(:C:C:2)C(:O):O)(C2:C:C:C(:C:C:2)C2:C:C:C(:C:C:2)C(:O):O)C2:C:C:C(:C:C:2)C2:C:C:C1:C:C:2,1
SR_bbh_v1-4c_In_1_Ch_v2-4c_In_1_Ch_1B_2NO2_Ch_ntn_edge_2x1x2,0.11468,0.7524,0.740005,3014.42,2230.69,10.09729,6.89989,55186.74614,,,,1520,,384,384,384,C36H8In3N8O40,0.032608696,4,4c_In_1_Ch,"6,20",O:C(:O)C(:O):O___O:C(:O)C1:C:C(:C(:C:C:1N(:O):O)C(:O):O)N(:O):O,1
SR_bbx_v1-4c_In_1_Ch_v2-4c_B_Ch_1TrU_Ch_1DoU_Ch_ntn_edge_1x1x2,0.05288,0.89302,0.301615,4504.72,1358.69,18.05462,14.96303,49720.5682,,,,522,,144,144,144,C16H4In1O8,0.035714286,4,4c_In_1_Ch,"54,10",O:C(:O)C#CC1:C:C(C#CC(:O):O):C2:C:C:1C1:C:C(:C(C#CC(:O):O):C:C:1C#CC(:O):O)C1:C:C2:C(C#CC(:O):O):C:C:1C#CC(:O):O___O:C(:O)C=CC(:O):O,1
SR_bch_v1-3c_B_Ch_v2-3c_B_Ch_v3-6c_Zr_1_Ch_1B_2NH2_Ch_ntn_edge_1x1x1,0.13826,0.69022,0.82404,2086.16,1719.08,10.54636,7.63452,28579.01031,,,,1152,,384,384,96,C24H26N3O16Zr3,0.043478261,6,6c_Zr_1_Ch,96,NC1:C:C(C2:C:C(:C:C(:C:2)C2:C:C(N):C(:C:C:2N)C2:C:C(:C:C(:C:2)C(:O):O)C(:O):O)C2:C:C(N):C(:C:C:2N)C2:C:C(:C:C(:C:2)C(:O):O)C(:O):O):C(N):C:C:1C1:C:C(:C:C(:C:1)C(:O):O)C(:O):O,1
SR_bbj_v1-4c_In_1_Ch_v2-4c_In_1_Ch_1B_2NO2_Ch_1x2x1,0.0584,0.84556,0.43711,3921.55,1714.15,16.67226,11.81349,56805.6725,,,,984,,192,192,192,C16H4In1N4O16,0.025,4,4c_In_1_Ch,20,O:C(:O)C1:C:C(:C(:C:C:1N(:O):O)C(:O):O)N(:O):O,1
SR_bch_v1-3c_triazine_Ch_v2-3c_pyrrole_Ch_v3-6c_Mg_1_Ch_2B_2SH_Ch_1x1x1,0.0623,0.88998,0.248158,5166.2,1282.04,28.33039,24.17254,185992.2972,,,,2328,,240,240,96,C45H28Mg2N2O8S12,0.021052632,6,6c_Mg_1_Ch,261,O:C(:O)C1:C:C(S):C(:C:C:1S)C1:C:C(S):C(:C:C:1S)C1:C:C:C(C2:C:C(S):C(:C:C:2S)C2:C:C(S):C(:C:C:2S)C2:N:C(:N:C(:N:2)C2:C:C(S):C(:C:C:2S)C2:C:C(S):C(:C:C:2S)C2:C:C:C(C3:C:C(S):C(:C:C:3S)C3:C:C(S):C(:C:C:3S)C(:O):O):N:2C2:C:C(S):C(:C:C:2S)C2:C:C(S):C(:C:C:2S)C(:O):O)C2:C:C(S):C(:C:C:2S)C2:C:C(S):C(:C:C:2S)C2:C:C:C(C3:C:C(S):C(:C:C:3S)C3:C:C(S):C(:C:C:3S)C(:O):O):N:2C2:C:C(S):C(:C:C:2S)C2:C:C(S):C(:C:C:2S)C(:O):O):N:1C1:C:C(S):C(:C:C:1S)C1:C:C(S):C(:C:C:1S)C(:O):O,1
SR_bbr_v1-4c_Cd_1_Ch_v2-4c_Cd_1_Ch_1B_2OH_Ch_ntn_edge_2x2x2,0.15717,0.80478,0.647309,3439.76,2226.59,12.08069,9.26772,56233.75052,,,,1216,,512,512,512,C7Cd1H2O9,0.055555556,4,4c_Cd_1_Ch,"6,18",O:C(:O)C(:O):O___O:C(:O)C1:C:C(O):C(:C:C:1O)C(:O):O,1
SR_bch_v1-3c_B_Ch_v2-3c_B_Ch_v3-6c_Mg_1_Ch_1TrU_Ch_ntn_edge_1x1x1,0.31554,0.75536,0.549222,3744.07,2056.33,11.40286,9.1454,25455.63615,,,,720,,240,240,96,C7H3Mg1O4,0.071428571,6,6c_Mg_1_Ch,60,O:C(:O)C1:C:C(C#CC2:C:C(C#CC3:C:C(:C:C(:C:3)C(:O):O)C(:O):O):C:C(C#CC3:C:C(:C:C(:C:3)C(:O):O)C(:O):O):C:2):C:C(:C:1)C(:O):O,1
SR_bch_v1-3c_B_Ch_v2-3c_B_Ch_v3-6c_Mg_1_Ch_1B_2CF3_Ch_ntn_edge_1x1x1,0.12947,0.71398,0.68728,2613.52,1796.22,10.99352,8.24686,31248.88209,,,,1056,,240,240,96,C10F3H4Mg1O4,0.047619048,6,6c_Mg_1_Ch,102,O:C(:O)C1:C:C(:C:C(:C:1)C1:C:C(:C(:C:C:1C(F)(F)F)C1:C:C(:C:C(:C:1)C1:C:C(:C(:C:C:1C(F)(F)F)C1:C:C(:C:C(:C:1)C(:O):O)C(:O):O)C(F)(F)F)C1:C:C(:C(:C:C:1C(F)(F)F)C1:C:C(:C:C(:C:1)C(:O):O)C(:O):O)C(F)(F)F)C(F)(F)F)C(:O):O,1
SR_bcp_v1-4c_1anC_Ch_v2-4c_Cd_1_Ch_1B_4Br_Ch_ntn_edge_1x2x2,0.77468,0.52876,1.88192,397.394,747.862,5.49358,3.96379,13850.51747,,,,592,,256,256,256,Br4C15Cd2O16,0.057142857,4,4c_Cd_1_Ch,"6,68",O:C(:O)C(:O):O___O:C(:O)C1(C(:O):O)C2:C(Br):C(Br):C(:C(Br):C:2Br)C(C(:O):O)(C(:O):O)C2:C(Br):C(Br):C(:C(Br):C:2Br)C(C(:O):O)(C(:O):O)C2:C(Br):C(Br):C(:C(Br):C:2Br)C(C(:O):O)(C(:O):O)C2:C(Br):C(Br):C1:C(Br):C:2Br,1
SR_bcg_v1-8c_Co_1_Ch_1B_2NO2_Ch_2x2x2,0.2193,0.4832,1.47471,0,0,6.01101,3.13717,91562.7033,,,,5440,,1280,1280,1024,C32Co4H8N8O33,0.049382716,8,8c_Co_1_Ch,20,O:C(:O)C1:C:C(:C(:C:C:1N(:O):O)C(:O):O)N(:O):O,1
SR_bbg_v1-4c_Cd_1_Ch_v2-4c_bicyclooctane_Ch_ntn_edge_2B_2NO2_Ch_3x2x1,0.16681,0.5973,0.992592,1133.13,1124.73,8.65233,7.14583,36496.9866,,,,1788,,96,96,96,C68Cd1H24N16O40,0.006756757,4,4c_Cd_1_Ch,444,O:C(:O)C1:C:C(:C(:C:C:1N(:O):O)C1:C:C(:C(:C:C:1N(:O):O)C1=CC2(C=C3C4=CC5(C=C(C6=CC7(C=C(C8=CC9(C=C(C%10=CC%11(C=C(C%12=CC%13(C=C(C(=C2)C31)C%12C(=C%13)C1:C:C(:C(:C:C:1N(:O):O)C1:C:C(:C(:C:C:1N(:O):O)C(:O):O)N(:O):O)N(:O):O)C1:C:C(:C(:C:C:1N(:O):O)C1:C:C(:C(:C:C:1N(:O):O)C(:O):O)N(:O):O)N(:O):O)C%10C(=C%11)C1:C:C(:C(:C:C:1N(:O):O)C1:C:C(:C(:C:C:1N(:O):O)C(:O):O)N(:O):O)N(:O):O)C1:C:C(:C(:C:C:1N(:O):O)C1:C:C(:C(:C:C:1N(:O):O)C(:O):O)N(:O):O)N(:O):O)C8C(=C9)C1:C:C(:C(:C:C:1N(:O):O)C1:C:C(:C(:C:C:1N(:O):O)C(:O):O)N(:O):O)N(:O):O)C1:C:C(:C(:C:C:1N(:O):O)C1:C:C(:C(:C:C:1N(:O):O)C(:O):O)N(:O):O)N(:O):O)C6C(=C7)C1:C:C(:C(:C:C:1N(:O):O)C1:C:C(:C(:C:C:1N(:O):O)C(:O):O)N(:O):O)N(:O):O)C1:C:C(:C(:C:C:1N(:O):O)C1:C:C(:C(:C:C:1N(:O):O)C(:O):O)N(:O):O)N(:O):O)C4C(=C5)C1:C:C(:C(:C:C:1N(:O):O)C1:C:C(:C(:C:C:1N(:O):O)C(:O):O)N(:O):O)N(:O):O)C1:C:C(:C(:C:C:1N(:O):O)C1:C:C(:C(:C:C:1N(:O):O)C(:O):O)N(:O):O)N(:O):O)C1:C:C(:C(:C:C:1N(:O):O)C1:C:C(:C(:C:C:1N(:O):O)C(:O):O)N(:O):O)N(:O):O)N(:O):O)N(:O):O,1
SR_bce_v1-4c_In_1_Ch_v2-4c_In_1_Ch_ntn_edge_1B_4CN_Ch_1x1x2,0.08612,0.72964,0.771796,2033.95,1569.79,17.31213,13.57976,48232.20093,,,,1296,,384,384,384,C14In1N4O8,0.038461538,4,4c_In_1_Ch,"20,6",N#CC1:C(C#N):C(C(:O):O):C(C#N):C(C#N):C:1C(:O):O___O:C(:O)C(:O):O,1
SR_bcs_v1-6c_CdZn_1_Ch_ntn_edge_2x2x2,0.20555,0.54446,2.28793,0,0,5.10189,2.38013,63421.0074,,,,2944,,2048,2048,1536,C6Cd3O13Zn1,0.210526316,6,6c_CdZn_1_Ch,6,O:C(:O)C(:O):O,1
SR_bbg_v1-4c_Cd_1_Ch_v2-4c_1anC_Ch_2B_4CN_Ch_ntn_edge_2x3x2,0.34473,0.31458,1.6747,0,0,5.07507,1.56278,24212.24487,,,,1704,,192,192,192,C46Cd1N16O8,0.014285714,4,4c_Cd_1_Ch,140,N#CC1:C(C#N):C2:C(C#N):C(C#N):C:1C1:C(C#N):C(C#N):C(:C(C#N):C:1C#N)C(C(:O):O)(C(:O):O)C1:C(C#N):C(C#N):C(:C(C#N):C:1C#N)C1:C(C#N):C(C#N):C(:C(C#N):C:1C#N)C(C(:O):O)(C(:O):O)C1:C(C#N):C(C#N):C(:C(C#N):C:1C#N)C1:C(C#N):C(C#N):C(:C(C#N):C:1C#N)C(C(:O):O)(C(:O):O)C1:C(C#N):C(C#N):C(:C(C#N):C:1C#N)C1:C(C#N):C(C#N):C(:C(C#N):C:1C#N)C2(C(:O):O)C(:O):O,1
SR_bch_v1-3c_B_Ch_v2-3c_B_Ch_v3-6c_Mg_1_Ch_1B_4CN_Ch_1x1x1,0.18688,0.80244,0.42205,4232.62,1786.38,16.57057,12.97167,80754.0543,,,,1680,,240,240,96,C21H3Mg1N6O4,0.029411765,6,6c_Mg_1_Ch,180,N#CC1:C(C#N):C(C2:C:C(:C:C(:C:2)C2:C(C#N):C(C#N):C(C3:C:C(:C:C(:C:3)C3:C(C#N):C(C#N):C(C4:C:C(:C:C(:C:4)C4:C(C#N):C(C#N):C(C(:O):O):C(C#N):C:4C#N)C4:C(C#N):C(C#N):C(C(:O):O):C(C#N):C:4C#N):C(C#N):C:3C#N)C3:C(C#N):C(C#N):C(C4:C:C(:C:C(:C:4)C4:C(C#N):C(C#N):C(C(:O):O):C(C#N):C:4C#N)C4:C(C#N):C(C#N):C(C(:O):O):C(C#N):C:4C#N):C(C#N):C:3C#N):C(C#N):C:2C#N)C2:C(C#N):C(C#N):C(C(:O):O):C(C#N):C:2C#N):C(C#N):C(C#N):C:1C(:O):O,1
SR_bcb_v1-4c_bicyclooctane_Ch_v2-4c_Cd_1_Ch_2TrU_Ch_ntn_edge_1TrU_Ch_1x1x2,0.10054,0.8748,0.326618,4670.31,1525.41,23.63784,19.11854,39424.0879,,,,528,,128,128,128,C20Cd1H4O8,0.03125,4,4c_Cd_1_Ch,"10,88",O:C(:O)C#CC#CC(:O):O___O:C(:O)C#CC1=CC2(C#CC(:O):O)C=C3C4=CC5(C#CC(:O):O)C=C(C#CC(:O):O)C4C(=C5)C4=CC5(C#CC(:O):O)C=C(C#CC(:O):O)C4C(=C5)C4=CC5(C#CC(:O):O)C=C(C#CC(:O):O)C4C(=C5)C(=C2)C13,1
SR_bbh_v1-4c_In_1_Ch_v2-4c_1anC_Ch_1B_2NH2_Ch_1x1x2,0.23046,0.63954,0.841447,1986.57,1671.59,7.9642,5.38039,15028.14851,,,,792,,64,64,64,C42H36In1N12O8,0.010204082,4,4c_In_1_Ch,196,NC1:C:C(:C(N):C:C:1C(:O):O)C1(C2:C:C(N):C(:C:C:2N)C(:O):O)C2:C:C(N):C(:C:C:2N)C(C2:C:C(N):C(:C:C:2N)C(:O):O)(C2:C:C(N):C(:C:C:2N)C(:O):O)C2:C:C(N):C(:C:C:2N)C(C2:C:C(N):C(:C:C:2N)C(:O):O)(C2:C:C(N):C(:C:C:2N)C(:O):O)C2:C:C(N):C(:C:C:2N)C(C2:C:C(N):C(:C:C:2N)C(:O):O)(C2:C:C(N):C(:C:C:2N)C(:O):O)C2:C:C(N):C1:C:C:2N,1
SR_bch_v1-3c_triazine_Ch_v2-3c_triazine_Ch_v3-6c_Mg_1_Ch_2B_1DoU_Ch_ntn_edge_1x1x1,0.12395,0.79946,0.435182,3672.78,1598.33,16.68784,11.90579,46618.56761,,,,1152,,240,240,96,C11H6Mg1N2O4,0.043478261,6,6c_Mg_1_Ch,114,O:C(:O)C1:N:C(:N:C(:N:1)C1:C:C:C(C=CC2:C:C:C(:C:C:2)C2:N:C(:N:C(:N:2)C2:C:C:C(C=CC3:C:C:C(:C:C:3)C3:N:C(:N:C(:N:3)C(:O):O)C(:O):O):C:C:2)C2:C:C:C(C=CC3:C:C:C(:C:C:3)C3:N:C(:N:C(:N:3)C(:O):O)C(:O):O):C:C:2):C:C:1)C(:O):O,1
SR_bcd_v1-4c_bicyclooctane_Ch_v2-4c_In_1_Ch_ntn_edge_1B_4F_Ch_1x1x2,0.08428,0.76422,0.717386,2014.03,1444.84,18.1635,15.21232,41710.37477,,,,1088,,256,256,256,C17F6H2In1O8,0.03030303,4,4c_In_1_Ch,"16,72",O:C(:O)C1:C(F):C(F):C(C(:O):O):C(F):C:1F___O:C(:O)C1=CC23C=C(C4=CC5(C=C(C(:O):O)C4C(=C5)C(:O):O)C45C=C(C6=CC27C=C(C(:O):O)C6C(=C7)C(:O):O)C(C(=C4)C(:O):O)C(=C5)C(:O):O)C1C(=C3)C(:O):O,1