name,k,VF,density,ASA_grav,ASA_vol,LPD,PLD,volume,,,,N_atoms,,N_metal_containing_bonds,N_metal_nonmetal_bonds,N_metal_linker_bonds,formula,metal_nonmetal_ratio,metal_node_connectivity,metal_node_name,N_atoms_per_linker,linker_SMILES,N_ccs
SR_cet_v1-3c_triazine_Ch_v2-6c_Ni_1_Ch_v3-6c_bicyclooctane_Ch_1B_2DoU_Ch_1x1x1,0.113,0.91632,0.170071,7314.52,1243.98,24.32302,19.25236,78718.36566,,,,812,,36,36,24,C110H75N9Ni2O7,0.009950249,6,6c_Ni_1_Ch,398,O:C(:O)C=CC1:C:C:C(C=CC2:N:C3C=CC4:C:C:C(C=CC5=C6C=CC7:C:C:C(C=CC8:N:C(C=CC9:C:C:C(C=CC%10=C(C=CC%11:C:C:C(C=CC(:N:3):N:2):C:C:%11)C2C3C=CC%11:C:C:C(C=CC%12:N:C(C=CC%13:C:C:C(C=CC%14=C%15C=CC%16:C:C:C(C=CC%17:N:C(C=CC%18:C:C:C(C=CC=3C%10C3C=CC%10:C:C:C(C=CC%19:N:C(C=CC%20:C:C:C(C=CC(=C(C=CC%21:C:C:C(C=CC%22:N:C(C=CC%23:C:C:C(C=CC=32):C:C:%23):N:C(C=CC2:C:C:C(C=CC(:O):O):C:C:2):N:%22):C:C:%21)C5%14)C6%15):C:C:%20):N:C(C=CC2:C:C:C(C=CC(:O):O):C:C:2):N:%19):C:C:%10):C:C:%18):N:C(C=CC2:C:C:C(C=CC(:O):O):C:C:2):N:%17):C:C:%16):C:C:%13):N:C(C=CC2:C:C:C(C=CC(:O):O):C:C:2):N:%12):C:C:%11):C:C:9):N:C(C=CC2:C:C:C(C=CC(:O):O):C:C:2):N:8):C:C:7):C:C:4):C:C:1,1
SR_buh_v1-4c_bicyclooctane_Ch_v2-12c_Zr_1_Ch_v3-12c_Zr_1_Ch_1B_2NH2_Ch_1x1x1,0.18112,0.62938,0.90751,1661.35,1507.7,9.49863,4.37422,40718.94704,,,,2064,,384,384,192,C54H44N12O16Zr3,0.023809524,12,12c_Zr_1_Ch,80,NC1:C:C(C(:O):O):C(N):C:C:1C1=CC2(C=C(C3:C:C(N):C(:C:C:3N)C(:O):O)C1C(=C2)C1:C:C(N):C(:C:C:1N)C(:O):O)C1:C:C(N):C(:C:C:1N)C(:O):O,1
SR_cdle_v1-4c_porphyrin_Ch_v2-4c_bicyclooctane_Ch_v3-4c_V_1_Ch_1TrU_Ch_2x2x1,0.25139,0.81444,0.456027,4293.89,1958.13,10.9927,9.33227,33630.1996,,,,720,,144,128,128,C26H7N2O8V2,0.046511628,4,4c_V_1_Ch,"54,32",O:C(:O)C#CC1:C2:C:C:C(:N:2):C(C#CC(:O):O):C2:C:C:C(:[NH]:2):C(C#CC(:O):O):C2:C:C:C(:N:2):C(C#CC(:O):O):C2:C:C:C:1:[NH]:2___O:C(:O)C#CC1=CC2(C#CC(:O):O)C=C(C#CC(:O):O)C1C(C#CC(:O):O)=C2,1
SR_cez_v1-4c_Cu_1_Ch_v2-6c_B_Ch_v3-3c_Cu_imadazoline_Ch_1DoU_Ch_1TrU_Ch_1x1x1,0.50077,0.83434,0.512162,4832.28,2474.91,11.50392,8.6208,28331.42632,,,,504,,126,120,120,C9Cu2H5N3O2,0.105263158,"3,4","3c_Cu_imadazoline_Ch,4c_Cu_1_Ch","60,14",C(#CC1:C(C#CC2:C:N:N:C:2):C(C#CC2:C:N:N:C:2):C(C#CC2:C:N:N:C:2):C(C#CC2:C:N:N:C:2):C:1C#CC1:C:N:N:C:1)C1:C:N:N:C:1___O:C(:O)C=CC1:C:N:N:C:1,1
SR_cen_v1-12c_Mn_1_Ch_v2-4c_1anC_Ch_1B_2Br_Ch_2x2x2,0.33773,0.34828,2.3896,0,0,5.03194,1.79353,27659.42268,,,,1528,,336,336,144,Br28C100H28Mn8O27,0.043715847,12,12c_Mn_1_Ch,"90,90",O:C(:O)C1:C:C(Br):C(:C:C:1Br)C(C1:C:C(Br):C(:C:C:1Br)C(:O):O)(C1:C:C(Br):C(:C:C:1Br)C(:O):O)C1:C:C(Br):C(:C:C:1Br)C(C1:C:C(Br):C(:C:C:1Br)C(:O):O)(C1:C:C(Br):C(:C:C:1Br)C(:O):O)C1:C:C(Br):C(:C:C:1Br)C(:O):O___OC(:O)C1:C:C(Br):C(:C:C:1Br)C(C1:C:C(Br):C(:C:C:1Br)C(O):O)(C1:C:C(Br):C(:C:C:1Br)C(O):O)C1:C:C(Br):C(:C:C:1Br)C(C1:C:C(Br):C(:C:C:1Br)C(O):O)(C1:C:C(Br):C(:C:C:1Br)C(O):O)C1:C:C(Br):C(:C:C:1Br)C(O):O,1
SR_cds_v1-4c_V_1_Ch_1B_2SH_Ch_2x2x2,0.35664,0.73,0.726247,3433.07,2493.26,7.9937,5.83343,81710.52891,,,,2432,,576,512,512,C8H4O4S2V1,0.055555556,4,4c_V_1_Ch,18,O:C(:O)C1:C:C(S):C(:C:C:1S)C(:O):O,1
SR_ceq_v1-6c_Cr_1_Ch_v2-6c_Cr_1_Ch_v3-3c_triazine_Ch_ntn_edge_3B_fused_8H_Ch_1x1x2,0.29272,0.7975,0.472443,4800.39,2267.91,12.2473,8.49495,31674.5152,,,,732,,90,90,72,C68Cr3H32N6O13,0.025210084,6,6c_Cr_1_Ch,59,O:C(:O)C1:C:C:C2:C(:C:C:C3:C:C(:C:C:C:3:2)C2:N:C(:N:C(:N:2)C2:C:C:C3:C(:C:C:C4:C:C(:C:C:C:4:3)C(:O):O):C:2)C(:O):O):C:1,1
SR_buh_v1-4c_1anC_Ch_v2-12c_Zr_1_Ch_v3-12c_Zr_1_Ch_2B_4CN_Ch_1x1x1,0.13276,0.60664,0.909581,1362.52,1239.32,12.23909,4.30608,79910.03467,,,,3144,,384,384,192,C255H4N96O32Zr6,0.015503876,12,12c_Zr_1_Ch,125,N#CC1:C(C#N):C(:C(C#N):C(C#N):C:1C(:O):O)C1:C(C#N):C(C#N):C(:C(C#N):C:1C#N)C(C1:C(C#N):C(C#N):C(:C(C#N):C:1C#N)C1:C(C#N):C(C#N):C(C(:O):O):C(C#N):C:1C#N)(C1:C(C#N):C(C#N):C(:C(C#N):C:1C#N)C1:C(C#N):C(C#N):C(C(:O):O):C(C#N):C:1C#N)C1:C(C#N):C(C#N):C(:C(C#N):C:1C#N)C1:C(C#N):C(C#N):C(C(:O):O):C(C#N):C:1C#N,1
SR_crsd_v1-8c_Co_2_Ch_v2-4c_1anC_Ch_1B_2Br_Ch_ntn_edge_1x1x1,0.2229,0.58338,1.35751,324.937,441.104,6.68813,3.30978,17179.52208,,,,752,,160,160,128,Br8C41Cl1Co4H16N24,0.044444444,8,8c_Co_2_Ch,"65,12",BrC1:C:C(:C(Br):C:C:1C1C:N:N:N:1)C(C1:C:C(Br):C(:C:C:1Br)C1C:N:N:N:1)(C1:C:C(Br):C(:C:C:1Br)C1C:N:N:N:1)C1:C:C(Br):C(:C:C:1Br)C1C:N:N:N:1___C1:N:N:N:C1C1C:N:N:N:1,1
SR_cai_v1-5c_bicyclooctane_Ch_v2-6c_CdZn_1_Ch_1B_4F_Ch_ntn_edge_1x1x2,0.28908,0.75634,0.741409,2642.1,1958.88,12.50734,10.59757,38557.17306,,,,1112,,128,128,96,C76Cd3F28H12N6O13Zn1,0.02962963,6,6c_CdZn_1_Ch,,None,1
SR_ceu_v1-4c_B_Ch_v2-6c_Ni_1_Ch_v3-4c_porphyrin_Ch_ntn_edge_1B_4F_Ch_2x2x1,0.21306,0.70094,0.796699,2326.9,1853.84,11.3361,8.25242,77674.55143,,,,2576,,288,288,192,C90F24H23N6Ni4O14,0.025477707,6,6c_Ni_1_Ch,306,O:C(:O)C1:C(F):C(F):C(C2:C:C3:C(:C:C:2C2:C(F):C(F):C(C(:O):O):C(F):C:2F)C2:C4:C:C:C(:N:4):C4C5:C:C(:C(:C:C:5C5:C6:C:C:C(:N:6):C3:C3:C:C:C(:[NH]:3):C3C6:C:C(:C(:C:C:6C6:C7:C:C:C(:N:7):C(C7:C:C(:C(:C:C:7C(:C7:C:C:C:3:N:7):C3:C:C:C:5:[NH]:3)C3:C(F):C(F):C(C(:O):O):C(F):C:3F)C3:C(F):C(F):C(C(:O):O):C(F):C:3F):C3:C:C:C(:[NH]:3):C3C5:C:C(:C(:C:C:5C(:C5:C:C:C(:N:5):C(C5:C:C(:C(:C:C:5C(:C5:C:C:C:3:N:5):C3:C:C:C:6:[NH]:3)C3:C(F):C(F):C(C(:O):O):C(F):C:3F)C3:C(F):C(F):C(C(:O):O):C(F):C:3F):C3:C:C:C:2:[NH]:3):C2:C:C:C:4:[NH]:2)C2:C(F):C(F):C(C(:O):O):C(F):C:2F)C2:C(F):C(F):C(C(:O):O):C(F):C:2F)C2:C(F):C(F):C(C(:O):O):C(F):C:2F)C2:C(F):C(F):C(C(:O):O):C(F):C:2F)C2:C(F):C(F):C(C(:O):O):C(F):C:2F)C2:C(F):C(F):C(C(:O):O):C(F):C:2F):C(F):C:1F,1
SR_buh_v1-4c_bicyclooctane_Ch_v2-12c_Zr_1_Ch_v3-12c_Zr_1_Ch_1DoU_Ch_1x1x1,0.27557,0.61822,1.03699,1412.99,1465.26,8.89477,4.11096,23321.03965,,,,1104,,384,384,192,C30H20O16Zr3,0.045454545,12,12c_Zr_1_Ch,40,O:C(:O)C=CC1=CC2(C=CC(:O):O)C=C(C=CC(:O):O)C1C(C=CC(:O):O)=C2,1
SR_cut_v1-8c_Mn_1_Ch_v2-3c_pyrrole_Ch_1B_2CH3_Ch_ntn_edge_2x2x2,0.18875,0.77272,0.501592,3692.55,1852.15,14.66867,12.89525,51414.32406,,,,1608,,160,160,128,C88Cl1H72Mn4N36,0.020304569,8,8c_Mn_1_Ch,98,CC1:C:C(:C(C):C:C:1C1:N:N:N:N:1)C1:C:C:C(C2:C:C:C(C3:C:C(C):C(:C:C:3C)C3:N:N:N:N:3):N:2C2:C:C(C):C(:C:C:2C)C2:N:N:N:N:2):N:1C1:C:C(C):C(:C:C:1C)C1:N:N:N:N:1,1
SR_cut_v1-8c_Mn_1_Ch_v2-3c_triazine_Ch_ntn_edge_1B_2CH3_Ch_2x2x3,0.33471,0.79832,0.523186,3217.35,1683.28,15.54288,14.02852,50276.4969,,,,1212,,240,240,192,C36Cl1H16Mn4N44,0.041237113,8,8c_Mn_1_Ch,48,CC1:C:C(C2:N:C(:N:C(:N:2)C2:N:N:N:N:2)C2:N:N:N:N:2):C(C):C:C:1C1:N:C(:N:C(:N:1)C1:N:N:N:N:1)C1:N:N:N:N:1,1
SR_ceg_v1-3c_triazine_Ch_v2-6c_Ni_1_Ch_v3-4c_Ni_1_Ch_1TrU_Ch_ntn_edge_2x2x2,0.20021,0.7856,0.676808,3069.95,2077.77,12.3984,9.70712,45541.48074,,,,928,,360,336,288,C24H1N9Ni5O19,0.094339623,"4,6","4c_Ni_1_Ch,6c_Ni_1_Ch",17,O:C(:O)C#CC1:N:C(:N:C(:N:1)C(:O):O)C(:O):O,1
SR_ceh_v1-3c_B_Ch_v2-6c_Mg_1_Ch_v3-4c_bicyclooctane_Ch_ntn_edge_1B_2furan_Ch_1x1x2,0.26278,0.80484,0.428283,5417.84,2320.37,11.04695,8.19625,29855.45874,,,,660,,60,60,24,C32H14Mg1O8,0.018518519,6,6c_Mg_1_Ch,,None,1
SR_buh_v1-4c_bicyclooctane_Ch_v2-12c_Zr_1_Ch_v3-12c_Zr_1_Ch_1B_2CH3_Ch_1x1x1,0.20335,0.60948,0.897318,1435.78,1288.35,9.33957,3.99817,40831.56363,,,,2256,,384,384,192,C66H56O16Zr3,0.02173913,12,12c_Zr_1_Ch,88,CC1:C:C(C(:O):O):C(C):C:C:1C1=CC2(C=C(C3:C:C(C):C(:C:C:3C)C(:O):O)C1C(=C2)C1:C:C(C):C(:C:C:1C)C(:O):O)C1:C:C(C):C(:C:C:1C)C(:O):O,1
SR_ced_v1-3c_triazine_Ch_v2-12c_Mn_1_Ch_2B_4F_Ch_2x2x1,0.12246,0.79982,0.561126,3460.79,1941.94,16.45319,9.27036,80873.49596,,,,1532,,168,168,72,C210F120Mn8N18O27,0.021333333,12,12c_Mn_1_Ch,124,OC(:O)C1:C(F):C(F):C(:C(F):C:1F)C1:C(F):C(F):C(C2:N:C(:N:C(:N:2)C2:C(F):C(F):C(:C(F):C:2F)C2:C(F):C(F):C(C3:N:C(:N:C(:N:3)C3:C(F):C(F):C(:C(F):C:3F)C3:C(F):C(F):C(C(:O):O):C(F):C:3F)C3:C(F):C(F):C(:C(F):C:3F)C3:C(F):C(F):C(C(O):O):C(F):C:3F):C(F):C:2F)C2:C(F):C(F):C(:C(F):C:2F)C2:C(F):C(F):C(C(:O):O):C(F):C:2F):C(F):C:1F,1
SR_cdle_v1-4c_B_Ch_v2-4c_bicyclooctane_Ch_v3-4c_Cu_1_Ch_1TrU_Ch_1DoU_Ch_2x2x1,0.21851,0.80006,0.537538,3969.39,2133.7,11.17198,7.89094,24238.80198,,,,576,,144,128,128,C19Cu2H7O8,0.058823529,4,4c_Cu_1_Ch,"32,36",O:C(:O)C#CC1=CC2(C#CC(:O):O)C=C(C#CC(:O):O)C1C(C#CC(:O):O)=C2___O:C(:O)C=CC1:C:C(C=CC(:O):O):C(C=CC(:O):O):C:C:1C=CC(:O):O,1
SR_cut_v1-8c_Co_1_Ch_v2-3c_B_Ch_ntn_edge_2TrU_Ch_2x2x2,0.13041,0.86398,0.329762,5297.23,1746.83,17.36562,15.09712,52882.00109,,,,776,,160,160,128,C64Co4H12O17,0.043010753,8,8c_Co_1_Ch,46,O:C(:O)C#CC#CC1:C:C(C#CC#CC(:O):O):C:C(:C:1)C1:C:C(C#CC#CC(:O):O):C:C(C#CC#CC(:O):O):C:1,1
SR_ces_v1-4c_B_Ch_v2-6c_bicyclooctane_Ch_v3-4c_V_1_Ch_2TrU_Ch_2x2x1,0.28046,0.84542,0.345973,5744.5,1987.44,16.7144,8.86182,58353.36659,,,,824,,108,96,96,C80H8O12V3,0.03,4,4c_V_1_Ch,,None,1
SR_buh_v1-4c_bicyclooctane_Ch_v2-12c_Eu_1_Ch_v3-12c_Eu_1_Ch_1B_2F_Ch_1x1x1,0.15669,0.65744,1.04476,1688.7,1764.29,9.84281,4.98316,40942.53122,,,,1680,,384,384,192,C54Eu3F12H20O16,0.029411765,12,12c_Eu_1_Ch,64,O:C(:O)C1:C:C(F):C(:C:C:1F)C1=CC2(C=C(C3:C:C(F):C(:C:C:3F)C(:O):O)C1C(=C2)C1:C:C(F):C(:C:C:1F)C(:O):O)C1:C:C(F):C(:C:C:1F)C(:O):O,1
SR_cee_v1-3c_pyrrole_Ch_v2-6c_B_Ch_v3-4c_V_1_Ch_2B_4H_Ch_1x1x2,0.25874,0.88284,0.244366,6413.09,1567.14,20.43534,18.9014,66057.33486,,,,900,,54,48,48,C43H26N1O4V1,0.013513514,4,4c_V_1_Ch,444,O:C(:O)C1:C:C:C(:C:C:1)C1:C:C:C(:C:C:1)C1:C:C:C(C2:C:C:C(:C:C:2)C2:C:C:C(:C:C:2)C2:C(C3:C:C:C(:C:C:3)C3:C:C:C(:C:C:3)C3:C:C:C(C4:C:C:C(:C:C:4)C4:C:C:C(:C:C:4)C(:O):O):N:3C3:C:C:C(:C:C:3)C3:C:C:C(:C:C:3)C(:O):O):C(C3:C:C:C(:C:C:3)C3:C:C:C(:C:C:3)C3:C:C:C(C4:C:C:C(:C:C:4)C4:C:C:C(:C:C:4)C(:O):O):N:3C3:C:C:C(:C:C:3)C3:C:C:C(:C:C:3)C(:O):O):C(C3:C:C:C(:C:C:3)C3:C:C:C(:C:C:3)C3:C:C:C(C4:C:C:C(:C:C:4)C4:C:C:C(:C:C:4)C(:O):O):N:3C3:C:C:C(:C:C:3)C3:C:C:C(:C:C:3)C(:O):O):C(C3:C:C:C(:C:C:3)C3:C:C:C(:C:C:3)C3:C:C:C(C4:C:C:C(:C:C:4)C4:C:C:C(:C:C:4)C(:O):O):N:3C3:C:C:C(:C:C:3)C3:C:C:C(:C:C:3)C(:O):O):C:2C2:C:C:C(:C:C:2)C2:C:C:C(:C:C:2)C2:C:C:C(C3:C:C:C(:C:C:3)C3:C:C:C(:C:C:3)C(:O):O):N:2C2:C:C:C(:C:C:2)C2:C:C:C(:C:C:2)C(:O):O):N:1C1:C:C:C(:C:C:1)C1:C:C:C(:C:C:1)C(:O):O,1
SR_dma_v1-3c_Cu_imadazoline_Ch_v2-3c_Cu_imadazoline_Ch_1B_2Br_Ch_ntn_edge_1x1x2,0.07898,0.94696,0.187321,5040.34,944.16,24.9948,19.1247,180190.9608,,,,928,,192,192,192,Br1C12Cu3H7N6,0.115384615,3,3c_Cu_imadazoline_Ch,"24,14",BrC1:C:C(C2:C:N:N:C:2):C(Br):C:C:1C1:C:N:N:C:1___C1:N:N:C:C:1C1:C:N:N:C:1,1
SR_byl_v1-4c_1anC_Ch_v2-4c_In_1_Ch_ntn_edge_2B_fused_Ch_1x1x2,0.18708,0.77464,0.618641,3665.95,2267.91,11.2625,8.25577,41811.87311,,,,1200,,256,256,256,C39H18In2O16,0.02739726,4,4c_In_1_Ch,"6,220",O:C(:O)C(:O):O___O:C(:O)C1:C:C:C2:C:C(:C:C:C:2:C:1)C1(C2:C:C:C3:C:C(:C:C:C:3:C:2)C(:O):O)C2:C:C:C3:C:C(:C:C:C:3:C:2)C(C2:C:C:C3:C:C(:C:C:C:3:C:2)C(:O):O)(C2:C:C:C3:C:C(:C:C:C:3:C:2)C(:O):O)C2:C:C:C3:C:C(:C:C:C:3:C:2)C(C2:C:C:C3:C:C(:C:C:C:3:C:2)C(:O):O)(C2:C:C:C3:C:C(:C:C:C:3:C:2)C(:O):O)C2:C:C:C3:C:C(:C:C:C:3:C:2)C(C2:C:C:C3:C:C(:C:C:C:3:C:2)C(:O):O)(C2:C:C:C3:C:C(:C:C:C:3:C:2)C(:O):O)C2:C:C:C3:C:C1:C:C:C:3:C:2,1
SR_dmb_v1-3c_Cu_imadazoline_Ch_v2-3c_Cu_imadazoline_Ch_3B_fused_8H_Ch_ntn_edge_1x1x1,0.04122,0.9796,0.055355,6523.92,361.131,50.16768,45.73842,292349.3202,,,,824,,96,96,96,C53Cu6H32N12,0.06185567,3,3c_Cu_imadazoline_Ch,"36,14",C1:C:C2:C(:C:C:C3:C:C(:C:C:C:3:2)C2:C:N:N:C:2):C:C:1C1:C:N:N:C:1___C1:N:N:C:C:1C1:C:N:N:C:1,1
SR_crsd_v1-8c_Co_2_Ch_v2-4c_bicyclooctane_Ch_1B_2NH2_Ch_ntn_edge_1x1x1,0.23138,0.66448,0.8142,2465.13,2007.11,7.48149,4.3833,21737.90352,,,,968,,160,160,128,C48Cl1Co4H36N32,0.034188034,8,8c_Co_2_Ch,"12,92",C1:N:N:N:C1C1C:N:N:N:1___NC1:C:C(C2C:N:N:N:2):C(N):C:C:1C1=CC2(C=C(C3:C:C(N):C(:C:C:3N)C3C:N:N:N:3)C1C(=C2)C1:C:C(N):C(:C:C:1N)C1C:N:N:N:1)C1:C:C(N):C(:C:C:1N)C1C:N:N:N:1,1
SR_cha_v1-4c_In_1_Ch_1B_4CN_Ch_1x1x1,0.05642,0.8289,0.443342,3472.48,1539.5,20.09023,11.47922,103734.6233,,,,1476,,288,288,288,C24In1N8O8,0.025,4,4c_In_1_Ch,20,N#CC1:C(C#N):C(C(:O):O):C(C#N):C(C#N):C:1C(:O):O,1
SR_buh_v1-4c_bicyclooctane_Ch_v2-12c_Zr_1_Ch_v3-12c_Zr_1_Ch_2B_2NO2_Ch_1x1x1,0.1153,0.71534,0.715861,2583.28,1849.27,14.22836,6.77944,101969.7578,,,,3408,,384,384,192,C90H32N24O64Zr3,0.014285714,12,12c_Zr_1_Ch,136,O:C(:O)C1:C:C(:C(:C:C:1N(:O):O)C1:C:C(:C(:C:C:1N(:O):O)C1=CC2(C=C(C3:C:C(:C(:C:C:3N(:O):O)C3:C:C(:C(:C:C:3N(:O):O)C(:O):O)N(:O):O)N(:O):O)C1C(=C2)C1:C:C(:C(:C:C:1N(:O):O)C1:C:C(:C(:C:C:1N(:O):O)C(:O):O)N(:O):O)N(:O):O)C1:C:C(:C(:C:C:1N(:O):O)C1:C:C(:C(:C:C:1N(:O):O)C(:O):O)N(:O):O)N(:O):O)N(:O):O)N(:O):O,1
SR_cex_v1-4c_ethene_Ch_v2-12c_Mn_1_Ch_v3-4c_ethene_Ch_1DoU_Ch_1TrU_Ch_2x2x2,0.45092,0.59816,1.01757,1302.88,1325.77,11.51392,6.78748,55216.10954,,,,2192,,672,672,288,C78H24Mn8O27,0.062015504,12,12c_Mn_1_Ch,252,OC(:O)C#CC1C=CC2C=CC(C#CC(:O):O)=C(C#CC(:O):O)C=CC3C=CC(C#CC(O):O)=C(C#CC(O):O)C=CC4C=CC(C#CC(:O):O)=C(C#CC(:O):O)C=CC5C=CC(C#CC(O):O)=C(C#CC(O):O)C=CC6C=CC(C#CC(:O):O)=C(C#CC(:O):O)C=CC(C=CC=1C#CC(O):O)=C1C=CC(C#CC(O):O)=C(C#CC(O):O)C=CC=2C=CC(C#CC(:O):O)=C(C#CC(:O):O)C=CC=3C=CC(C#CC(O):O)=C(C#CC(O):O)C=CC=4C=CC(C#CC(:O):O)=C(C#CC(:O):O)C=CC=5C=CC(C#CC(O):O)=C(C#CC(O):O)C=CC=6C=CC(C#CC(:O):O)=C(C#CC(:O):O)C=C1,1
SR_cer_v1-3c_triazine_Ch_v2-6c_bicyclooctane_Ch_v3-6c_CdZn_1_Ch_ntn_edge_1B_4Br_Ch_2x2x1,0.11834,0.65164,1.4628,1404.64,2054.7,7.70783,5.3763,45025.16695,,,,1216,,256,256,192,Br12C37Cd3H1N9O13Zn1,0.055555556,6,6c_CdZn_1_Ch,142,O:C(:O)C1:N:C(:N:C(:N:1)C1:C(Br):C(Br):C(C2=C(C3:C(Br):C(Br):C(C4:N:C(:N:C(:N:4)C(:O):O)C(:O):O):C(Br):C:3Br)C3C(=C(C4:C(Br):C(Br):C(C5:N:C(:N:C(:N:5)C(:O):O)C(:O):O):C(Br):C:4Br)C2C(=C3C2:C(Br):C(Br):C(C3:N:C(:N:C(:N:3)C(:O):O)C(:O):O):C(Br):C:2Br)C2:C(Br):C(Br):C(C3:N:C(:N:C(:N:3)C(:O):O)C(:O):O):C(Br):C:2Br)C2:C(Br):C(Br):C(C3:N:C(:N:C(:N:3)C(:O):O)C(:O):O):C(Br):C:2Br):C(Br):C:1Br)C(:O):O,1
SR_cet_v1-3c_B_Ch_v2-6c_Ni_1_Ch_v3-6c_bicyclooctane_Ch_1B_4CN_Ch_2x2x1,0.17402,0.69318,0.678739,2689.84,1825.7,11.33514,7.55892,99352.51903,,,,2816,,144,144,96,C119H12N36Ni2O7,0.011494253,6,6c_Ni_1_Ch,,None,1
SR_buh_v1-4c_bicyclooctane_Ch_v2-12c_Zr_1_Ch_v3-12c_Zr_1_Ch_1B_2SH_Ch_1x1x1,0.18238,0.59454,1.03928,1177.25,1223.5,9.36349,3.79832,40790.23621,,,,1872,,384,384,192,C54H32O16S12Zr3,0.026315789,12,12c_Zr_1_Ch,72,O:C(:O)C1:C:C(S):C(:C:C:1S)C1=CC2(C=C(C3:C:C(S):C(:C:C:3S)C(:O):O)C1C(=C2)C1:C:C(S):C(:C:C:1S)C(:O):O)C1:C:C(S):C(:C:C:1S)C(:O):O,1
SR_cez_v1-4c_Cu_1_Ch_v2-6c_B_Ch_v3-3c_Cu_imadazoline_Ch_1TrU_Ch_ntn_edge_1x1x1,0.38689,0.8321,0.545596,4367.88,2383.09,11.562,9.97499,25324.13193,,,,432,,126,120,120,C8Cu2H3N3O2,0.125,"3,4","3c_Cu_imadazoline_Ch,4c_Cu_1_Ch","48,12",C1:N:N:C:C:1C1:C(C2:C:N:N:C:2):C(C2:C:N:N:C:2):C(C2:C:N:N:C:2):C(C2:C:N:N:C:2):C:1C1:C:N:N:C:1___O:C(:O)C#CC1:C:N:N:C:1,1
SR_cer_v1-3c_pyrrole_Ch_v2-6c_bicyclooctane_Ch_v3-6c_CdZn_1_Ch_2B_1TrU_Ch_1x1x1,0.07076,0.92164,0.172311,6902.69,1189.41,23.7054,20.81414,104748.472,,,,988,,64,64,48,C148Cd3H79N3O13Zn1,0.016460905,6,6c_CdZn_1_Ch,484,O:C(:O)C1:C:C:C(C#CC2:C:C:C(:C:C:2)C2:C:C:C(C3:C:C:C(C#CC4:C:C:C(:C:C:4)C4=C(C5:C:C:C(C#CC6:C:C:C(:C:C:6)C6:C:C:C(C7:C:C:C(C#CC8:C:C:C(:C:C:8)C(:O):O):C:C:7):N:6C6:C:C:C(C#CC7:C:C:C(:C:C:7)C(:O):O):C:C:6):C:C:5)C5C(=C(C6:C:C:C(C#CC7:C:C:C(:C:C:7)C7:C:C:C(C8:C:C:C(C#CC9:C:C:C(:C:C:9)C(:O):O):C:C:8):N:7C7:C:C:C(C#CC8:C:C:C(:C:C:8)C(:O):O):C:C:7):C:C:6)C4C(=C5C4:C:C:C(C#CC5:C:C:C(:C:C:5)C5:C:C:C(C6:C:C:C(C#CC7:C:C:C(:C:C:7)C(:O):O):C:C:6):N:5C5:C:C:C(C#CC6:C:C:C(:C:C:6)C(:O):O):C:C:5):C:C:4)C4:C:C:C(C#CC5:C:C:C(:C:C:5)C5:C:C:C(C6:C:C:C(C#CC7:C:C:C(:C:C:7)C(:O):O):C:C:6):N:5C5:C:C:C(C#CC6:C:C:C(:C:C:6)C(:O):O):C:C:5):C:C:4)C4:C:C:C(C#CC5:C:C:C(:C:C:5)C5:C:C:C(C6:C:C:C(C#CC7:C:C:C(:C:C:7)C(:O):O):C:C:6):N:5C5:C:C:C(C#CC6:C:C:C(:C:C:6)C(:O):O):C:C:5):C:C:4):C:C:3):N:2C2:C:C:C(C#CC3:C:C:C(:C:C:3)C(:O):O):C:C:2):C:C:1,1
SR_brl_v1-4c_Ni_1_Ch_v2-4c_bicyclooctane_Ch_1B_2SH_Ch_1x1x2,0.16253,0.76472,0.559507,3559.33,1991.47,12.54382,11.54592,27470.50902,,,,660,,54,48,48,C28H16Ni1O4S6,0.018518519,4,4c_Ni_1_Ch,324,O:C(:O)C1:C:C(S):C(:C:C:1S)C1=CC23C=C(C4:C:C(S):C(:C:C:4S)C4=CC5(C=C(C6:C:C(S):C(:C:C:6S)C(:O):O)C4C(=C5)C4:C:C(S):C(:C:C:4S)C(:O):O)C4:C:C(S):C(:C:C:4S)C4=CC5(C=C(C6:C:C(S):C(:C:C:6S)C(:O):O)C4C(=C5)C4:C:C(S):C(:C:C:4S)C(:O):O)C4:C:C(S):C(:C:C:4S)C45C=C(C6:C:C(S):C(:C:C:6S)C(:O):O)C(C(=C4)C4:C:C(S):C(:C:C:4S)C(:O):O)C(=C5)C4:C:C(S):C(:C:C:4S)C45C=C(C6:C:C(S):C(:C:C:6S)C(:O):O)C(C(=C4)C4:C:C(S):C(:C:C:4S)C(:O):O)C(=C5)C4:C:C(S):C(:C:C:4S)C45C=C(C6:C:C(S):C(:C:C:6S)C(:O):O)C(C(=C4)C4:C:C(S):C(:C:C:4S)C(:O):O)C(=C5)C4:C:C(S):C2:C:C:4S)C1C(=C3)C1:C:C(S):C(:C:C:1S)C(:O):O,1
SR_buh_v1-4c_bicyclooctane_Ch_v2-12c_Eu_1_Ch_v3-12c_Eu_1_Ch_1TrU_Ch_1B_4H_Ch_1x1x1,0.15398,0.67578,0.958972,1983.53,1902.15,11.17605,5.32112,36464.658,,,,1488,,384,384,192,C48Eu3H26O16,0.033333333,12,12c_Eu_1_Ch,56,O:C(:O)C#CC1=CC2(C=C(C3:C:C:C(:C:C:3)C(:O):O)C1C(=C2)C1:C:C:C(:C:C:1)C(:O):O)C1:C:C:C(:C:C:1)C(:O):O,1
SR_cer_v1-3c_B_Ch_v2-6c_bicyclooctane_Ch_v3-6c_CdZn_1_Ch_1TrU_Ch_1B_4H_Ch_2x2x1,0.14353,0.81436,0.517139,4066.73,2103.06,12.07207,10.3253,78703.48273,,,,1552,,256,256,192,C58Cd3H22O13Zn1,0.043010753,6,6c_CdZn_1_Ch,184,O:C(:O)C#CC1:C:C(C#CC(:O):O):C:C(:C:1)C1:C:C:C(:C:C:1)C1=C(C2:C:C:C(:C:C:2)C2:C:C(C#CC(:O):O):C:C(C#CC(:O):O):C:2)C2C(=C(C3:C:C:C(:C:C:3)C3:C:C(C#CC(:O):O):C:C(C#CC(:O):O):C:3)C1C(=C2C1:C:C:C(:C:C:1)C1:C:C(C#CC(:O):O):C:C(C#CC(:O):O):C:1)C1:C:C:C(:C:C:1)C1:C:C(C#CC(:O):O):C:C(C#CC(:O):O):C:1)C1:C:C:C(:C:C:1)C1:C:C(C#CC(:O):O):C:C(C#CC(:O):O):C:1,1
SR_cdm_v1-4c_porphyrin_Ch_v2-4c_V_1_Ch_1B_4CN_Ch_ntn_edge_2x2x1,0.81965,0.5582,1.06003,651.327,690.425,7.34535,4.67619,87448.46063,,,,4224,,576,512,512,C39H5N12O8V2,0.03125,4,4c_V_1_Ch,"272,20",N#CC1:C(C#N):C(:C(C#N):C(C#N):C:1C(:O):O)C1:C2:C:C:C(:N:2):C2C3:C4:C:C:C(:N:4):C(C4:C(C#N):C(C#N):C(C(:O):O):C(C#N):C:4C#N):C4:C:C:C(:[NH]:4):C(C4:C5:C:C:C(:N:5):C(C5:C(C#N):C(C#N):C(C(:O):O):C(C#N):C:5C#N):C5:C:C:C(:[NH]:5):C(C5:C6:C:C:C(:N:6):C(C6:C(C#N):C(C#N):C(C(:O):O):C(C#N):C:6C#N):C6:C:C:C(:[NH]:6):C(C(:C6:C:C:C(:N:6):C(C6:C(C#N):C(C#N):C(C(:O):O):C(C#N):C:6C#N):C6:C:C:C:2:[NH]:6):C2:C:C:C:1:[NH]:2):C1:C:C:C(:N:1):C(C1:C(C#N):C(C#N):C(C(:O):O):C(C#N):C:1C#N):C1:C:C:C:5:[NH]:1):C1:C:C:C(:N:1):C(C1:C(C#N):C(C#N):C(C(:O):O):C(C#N):C:1C#N):C1:C:C:C:4:[NH]:1):C1:C:C:C(:N:1):C(C1:C(C#N):C(C#N):C(C(:O):O):C(C#N):C:1C#N):C1:C:C:C:3:[NH]:1___N#CC1:C(C#N):C(C(:O):O):C(C#N):C(C#N):C:1C(:O):O,1
SR_buh_v1-4c_bicyclooctane_Ch_v2-12c_Zr_1_Ch_v3-12c_Zr_1_Ch_1TrU_Ch_1B_4H_Ch_1x1x1,0.22497,0.67348,0.83182,2256.25,1876.8,10.32405,5.58538,36192.88275,,,,1488,,384,384,192,C48H26O16Zr3,0.033333333,12,12c_Zr_1_Ch,56,O:C(:O)C#CC1=CC2(C=C(C3:C:C:C(:C:C:3)C(:O):O)C1C(=C2)C1:C:C:C(:C:C:1)C(:O):O)C1:C:C:C(:C:C:1)C(:O):O,1
SR_ces_v1-4c_B_Ch_v2-6c_bicyclooctane_Ch_v3-4c_Cu_1_Ch_1B_4Br_Ch_2x2x2,0.24783,0.5625,1.82519,699.949,1277.54,9.89749,4.60289,91262.35663,,,,2800,,216,192,192,Br48C104Cu3H8O12,0.01744186,4,4c_Cu_1_Ch,,None,1
SR_cet_v1-3c_triazine_Ch_v2-6c_Zn_1_Ch_v3-6c_bicyclooctane_Ch_ntn_edge_1B_4F_Ch_2x2x1,0.36698,0.61058,1.10846,724.132,802.674,9.06704,4.62316,28722.71297,,,,1112,,128,128,96,C76F24H4N18O13Zn4,0.02962963,6,6c_Zn_1_Ch,,None,1
SR_cev_v1-4c_ethene_Ch_v2-4c_ethene_Ch_v3-4c_Ni_1_Ch_1B_4F_Ch_1x1x1,0.5027,0.63128,1.04917,1393.49,1462.01,10.25798,4.63352,17007.88141,,,,600,,54,48,48,C29F16Ni1O4,0.020408163,4,4c_Ni_1_Ch,294,O:C(:O)C1:C(F):C(F):C(C(=C2C3:C(F):C(F):C(C4=C5C6:C(F):C(F):C(C(=C(C7:C(F):C(F):C(C(:O):O):C(F):C:7F)C7:C(F):C(F):C(C(:O):O):C(F):C:7F)C7:C(F):C(F):C(C8=C(C9:C(F):C(F):C(C(=C(C%10:C(F):C(F):C(C(:O):O):C(F):C:%10F)C%10:C(F):C(F):C(C(:O):O):C(F):C:%10F)C%10:C(F):C(F):C4:C(F):C:%10F):C(F):C:9F)C4:C(F):C(F):C(C(=C(C9:C(F):C(F):C(C(:O):O):C(F):C:9F)C9:C(F):C(F):C(C(:O):O):C(F):C:9F)C9:C(F):C(F):C(C(=C(C%10:C(F):C(F):C2:C(F):C:%10F)C2:C(F):C(F):C(C(=C(C%10:C(F):C(F):C(C(:O):O):C(F):C:%10F)C%10:C(F):C(F):C(C(:O):O):C(F):C:%10F)C%10:C(F):C(F):C8:C(F):C:%10F):C(F):C:2F)C2:C(F):C(F):C(C(=C(C8:C(F):C(F):C(C(:O):O):C(F):C:8F)C8:C(F):C(F):C(C(:O):O):C(F):C:8F)C8:C(F):C(F):C5:C(F):C:8F):C(F):C:2F):C(F):C:9F):C(F):C:4F):C(F):C:7F):C(F):C:6F):C(F):C:3F)C2:C(F):C(F):C(C(:O):O):C(F):C:2F):C(F):C:1F,1