name,k,VF,density,ASA_grav,ASA_vol,LPD,PLD,volume,,,,N_atoms,,N_metal_containing_bonds,N_metal_nonmetal_bonds,N_metal_linker_bonds,formula,metal_nonmetal_ratio,metal_node_connectivity,metal_node_name,N_atoms_per_linker,linker_SMILES,N_ccs
SR_dpe_v1-6c_Zr_1_Ch_v2-8c_Zr_1_Ch_v3-4c_porphyrin_Ch_1TrU_Ch_1B_4H_Ch_1x1x1,0.1154,0.7022,0.849815,2206.71,1875.29,18.76938,5.44007,33188.14938,,,,1206,,528,528,144,C192H190N12O176Zr33,0.057894737,"6,8","6c_Zr_1_Ch,8c_Zr_1_Ch","8,146,86,26",O:C(:O)C#CC(:O):O___O:C(:O)C1:C:C:C(:C:C:1)C1:C2:C:C:C(:N:2):C(C2:C:C:C(:C:C:2)C(:O):O):C2:C:C:C(:[NH]:2):C(C2:C3:C:C:C(:N:3):C(C3:C:C:C(:C:C:3)C(:O):O):C3:C:C:C(:[NH]:3):C(C3:C:C:C(:C:C:3)C(:O):O):C3:C:C:C(:N:3):C(C3:C:C:C(:C:C:3)C(:O):O):C3:C:C:C:2:[NH]:3):C2:C:C:C(:N:2):C(C2:C:C:C(:C:C:2)C(:O):O):C2:C:C:C:1:[NH]:2___O:C(:O)C1:C:C:C(:C:C:1)C1:C2:C:C:C(:N:2):C(C2:C:C:C(:C:C:2)C(:O):O):C2:C:C:C(:[NH]:2):C(C2:C:C:C(:C:C:2)C(:O):O):C2:C:C:C(:N:2):C(C2:C:C:C(:C:C:2)C(:O):O):C2:C:C:C:1:[NH]:2___O:C(:O)C1:C:C:C(:C:C:1)C1:C:C:C(:C:C:1)C(:O):O,1
SR_dna_v1-8c_Zr_1_Ch_v2-6c_B_Ch_v3-3c_B_Ch_1B_2CN_Ch_1x1x1,0.0697,0.81176,0.451397,2895.65,1307.09,34.02626,13.1361,133904.8271,,,,2952,,576,576,192,C66H26N12O16Zr3,0.025,8,8c_Zr_1_Ch,312,N#CC1:C:C(C2:C:C(:C:C(:C:2)C2:C:C(C#N):C(:C:C:2C#N)C2:C(C3:C:C(C#N):C(:C:C:3C#N)C3:C:C(:C:C(:C:3)C3:C:C(C#N):C(:C:C:3C#N)C(:O):O)C3:C:C(C#N):C(:C:C:3C#N)C(:O):O):C(C3:C:C(C#N):C(:C:C:3C#N)C3:C:C(:C:C(:C:3)C3:C:C(C#N):C(:C:C:3C#N)C(:O):O)C3:C:C(C#N):C(:C:C:3C#N)C(:O):O):C(C3:C:C(C#N):C(:C:C:3C#N)C3:C:C(:C:C(:C:3)C3:C:C(C#N):C(:C:C:3C#N)C(:O):O)C3:C:C(C#N):C(:C:C:3C#N)C(:O):O):C(C3:C:C(C#N):C(:C:C:3C#N)C3:C:C(:C:C(:C:3)C3:C:C(C#N):C(:C:C:3C#N)C(:O):O)C3:C:C(C#N):C(:C:C:3C#N)C(:O):O):C:2C2:C:C(C#N):C(:C:C:2C#N)C2:C:C(:C:C(:C:2)C2:C:C(C#N):C(:C:C:2C#N)C(:O):O)C2:C:C(C#N):C(:C:C:2C#N)C(:O):O)C2:C:C(C#N):C(:C:C:2C#N)C(:O):O):C(C#N):C:C:1C(:O):O,1
SR_dnj_v1-8c_Co_1_Ch_v2-6c_B_Ch_v3-3c_B_Ch_1DoU_Ch_1B_4H_Ch_1x1x1,0.1846,0.80764,0.449598,2990.84,1344.68,21.47441,15.21058,32475.44995,,,,846,,120,120,96,C76Co4H44O17,0.02919708,8,8c_Co_1_Ch,204,O:C(:O)C=CC1:C:C(C=CC(:O):O):C:C(:C:1)C1:C:C:C(:C:C:1)C1:C(C2:C:C:C(:C:C:2)C2:C:C(C=CC(:O):O):C:C(C=CC(:O):O):C:2):C(C2:C:C:C(:C:C:2)C2:C:C(C=CC(:O):O):C:C(C=CC(:O):O):C:2):C(C2:C:C:C(:C:C:2)C2:C:C(C=CC(:O):O):C:C(C=CC(:O):O):C:2):C(C2:C:C:C(:C:C:2)C2:C:C(C=CC(:O):O):C:C(C=CC(:O):O):C:2):C:1C1:C:C:C(:C:C:1)C1:C:C(C=CC(:O):O):C:C(C=CC(:O):O):C:1,1
SR_dni_v1-8c_Co_1_Ch_v2-3c_triazine_Ch_v3-3c_B_Ch_2B_4F_Ch_1x1x1,0.0687,0.88746,0.304237,4197.39,1277,39.47577,11.26009,149400.5297,,,,1878,,120,120,96,C180Co4F96H12N4O17,0.012944984,8,8c_Co_1_Ch,231,O:C(:O)C1:C(F):C(F):C(:C(F):C:1F)C1:C(F):C(F):C(C2:C:C(:C:C(:C:2)C2:C(F):C(F):C(:C(F):C:2F)C2:C(F):C(F):C(C3:N:C(:N:C(:N:3)C3:C(F):C(F):C(:C(F):C:3F)C3:C(F):C(F):C(C4:C:C(:C:C(:C:4)C4:C(F):C(F):C(:C(F):C:4F)C4:C(F):C(F):C(C(:O):O):C(F):C:4F)C4:C(F):C(F):C(:C(F):C:4F)C4:C(F):C(F):C(C(:O):O):C(F):C:4F):C(F):C:3F)C3:C(F):C(F):C(:C(F):C:3F)C3:C(F):C(F):C(C4:C:C(:C:C(:C:4)C4:C(F):C(F):C(:C(F):C:4F)C4:C(F):C(F):C(C(:O):O):C(F):C:4F)C4:C(F):C(F):C(:C(F):C:4F)C4:C(F):C(F):C(C(:O):O):C(F):C:4F):C(F):C:3F):C(F):C:2F)C2:C(F):C(F):C(:C(F):C:2F)C2:C(F):C(F):C(C(:O):O):C(F):C:2F):C(F):C:1F,1
SR_dnj_v1-8c_Co_1_Ch_v2-6c_B_Ch_v3-3c_triazine_Ch_1TrU_Ch_1x1x1,0.16287,0.83944,0.428286,3193.56,1367.76,22.90667,16.02122,29134.31669,,,,486,,120,120,96,C48Co4N12O17,0.051948052,8,8c_Co_1_Ch,114,O:C(:O)C#CC1:N:C(C#CC(:O):O):N:C(C#CC2:C(C#CC3:N:C(C#CC(:O):O):N:C(C#CC(:O):O):N:3):C(C#CC3:N:C(C#CC(:O):O):N:C(C#CC(:O):O):N:3):C(C#CC3:N:C(C#CC(:O):O):N:C(C#CC(:O):O):N:3):C(C#CC3:N:C(C#CC(:O):O):N:C(C#CC(:O):O):N:3):C:2C#CC2:N:C(C#CC(:O):O):N:C(C#CC(:O):O):N:2):N:1,1
SR_dni_v1-8c_Co_1_Ch_v2-3c_B_Ch_v3-3c_pyrrole_Ch_1B_2OH_Ch_1x1x1,0.11974,0.7487,0.603309,2686.5,1620.79,20.8764,5.48417,37278.61412,,,,1278,,120,120,96,C104Co4H60N4O41,0.019138756,8,8c_Co_1_Ch,156,O:C(:O)C1:C:C(O):C(:C:C:1O)C1:C:C:C(C2:C:C(O):C(:C:C:2O)C(:O):O):N:1C1:C:C(O):C(:C:C:1O)C1:C:C(:C:C(:C:1)C1:C:C(O):C(:C:C:1O)N1:C(:C:C:C:1C1:C:C(O):C(:C:C:1O)C(:O):O)C1:C:C(O):C(:C:C:1O)C(:O):O)C1:C:C(O):C(:C:C:1O)N1:C(:C:C:C:1C1:C:C(O):C(:C:C:1O)C(:O):O)C1:C:C(O):C(:C:C:1O)C(:O):O,1
SR_epa_v1-6c_Mg_1_Ch_v2-6c_Mg_1_Ch_v3-4c_B_Ch_2B_2F_Ch_1x1x1,0.21354,0.86274,0.326433,4684.31,1529.11,24.40259,12.13072,123011.038,,,,1728,,360,360,144,C47F12H17Mg4O16,0.043478261,6,6c_Mg_1_Ch,"26,100",O:C(:O)C1:C:C(F):C(:C:C:1F)C1:C:C(F):C(:C:C:1F)C(:O):O___O:C(:O)C1:C:C(F):C(:C:C:1F)C1:C:C(F):C(:C:C:1F)C1:C:C(C2:C:C(F):C(:C:C:2F)C2:C:C(F):C(:C:C:2F)C(:O):O):C(:C:C:1C1:C:C(F):C(:C:C:1F)C1:C:C(F):C(:C:C:1F)C(:O):O)C1:C:C(F):C(:C:C:1F)C1:C:C(F):C(:C:C:1F)C(:O):O,1
SR_eps_v1-3c_pyrrole_Ch_v2-8c_Co_1_Ch_v3-4c_porphyrin_Ch_2B_4Br_Ch_1x1x1,0.04956,0.81646,0.774661,1753.18,1358.12,31.97643,10.10408,68008.59322,,,,993,,60,60,48,Br96C188Co4H18N8O17,0.012232416,8,8c_Co_1_Ch,326,O:C(:O)C1:C(Br):C(Br):C(:C(Br):C:1Br)C1:C(Br):C(Br):C(:C(Br):C:1Br)C1:C:C:C(C2:C(Br):C(Br):C(:C(Br):C:2Br)C2:C(Br):C(Br):C(C(:O):O):C(Br):C:2Br):N:1C1:C(Br):C(Br):C(:C(Br):C:1Br)C1:C(Br):C(Br):C(:C(Br):C:1Br)C1:C2:C:C:C(:N:2):C(C2:C(Br):C(Br):C(:C(Br):C:2Br)C2:C(Br):C(Br):C(:C(Br):C:2Br)N2:C(:C:C:C:2C2:C(Br):C(Br):C(:C(Br):C:2Br)C2:C(Br):C(Br):C(C(:O):O):C(Br):C:2Br)C2:C(Br):C(Br):C(:C(Br):C:2Br)C2:C(Br):C(Br):C(C(:O):O):C(Br):C:2Br):C2:C:C:C(:[NH]:2):C(C2:C(Br):C(Br):C(:C(Br):C:2Br)C2:C(Br):C(Br):C(:C(Br):C:2Br)N2:C(:C:C:C:2C2:C(Br):C(Br):C(:C(Br):C:2Br)C2:C(Br):C(Br):C(C(:O):O):C(Br):C:2Br)C2:C(Br):C(Br):C(:C(Br):C:2Br)C2:C(Br):C(Br):C(C(:O):O):C(Br):C:2Br):C2:C:C:C(:N:2):C(C2:C(Br):C(Br):C(:C(Br):C:2Br)C2:C(Br):C(Br):C(:C(Br):C:2Br)N2:C(:C:C:C:2C2:C(Br):C(Br):C(:C(Br):C:2Br)C2:C(Br):C(Br):C(C(:O):O):C(Br):C:2Br)C2:C(Br):C(Br):C(:C(Br):C:2Br)C2:C(Br):C(Br):C(C(:O):O):C(Br):C:2Br):C2:C:C:C:1:[NH]:2,1
SR_dnj_v1-8c_Co_1_Ch_v2-6c_B_Ch_v3-3c_B_Ch_2B_2SH_Ch_1x1x1,0.0604,0.87836,0.283483,3827.95,1085.16,37.71591,26.57162,151751.336,,,,2142,,120,120,96,C180Co4H108O17S48,0.011331445,8,8c_Co_1_Ch,,None,1
SR_epw_v1-6c_B_Ch_v2-12c_Mn_1_Ch_v3-3c_B_Ch_1TrU_Ch_1B_4H_Ch_1x1x1,0.25662,0.6811,0.736368,2125.66,1565.27,15.97224,5.3908,93669.02597,,,,3824,,672,672,288,C138H66Mn8O27,0.034632035,12,12c_Mn_1_Ch,"228,228,228,228,228,000,000,000,000,000,000,000,000,000,000",O:C(:O)C1:C:C:C(:C:C:1)C1:C:C(C#CC2:C(C#CC3:C:C(:C:C(:C:3)C3:C:C:C(:C:C:3)C(:O):O)C3:C:C:C(:C:C:3)C(:O):O):C(C#CC3:C:C(:C:C(:C:3)C3:C:C:C(:C:C:3)C(:O):O)C3:C:C:C(:C:C:3)C(:O):O):C(C#CC3:C:C(:C:C(:C:3)C3:C:C:C(:C:C:3)C(:O):O)C3:C:C:C(:C:C:3)C(:O):O):C(C#CC3:C:C(:C:C(:C:3)C3:C:C:C(:C:C:3)C(:O):O)C3:C:C:C(:C:C:3)C(:O):O):C:2C#CC2:C:C(:C:C(:C:2)C2:C:C:C(:C:C:2)C(:O):O)C2:C:C:C(:C:C:2)C(:O):O):C:C(:C:1)C1:C:C:C(:C:C:1)C(:O):O___OC(:O)C1:C:C:C(:C:C:1)C1:C:C(C#CC2:C(C#CC3:C:C(:C:C(:C:3)C3:C:C:C(:C:C:3)C(:O):O)C3:C:C:C(:C:C:3)C(O):O):C(C#CC3:C:C(:C:C(:C:3)C3:C:C:C(:C:C:3)C(:O):O)C3:C:C:C(:C:C:3)C(:O):O):C(C#CC3:C:C(:C:C(:C:3)C3:C:C:C(:C:C:3)C(:O):O)C3:C:C:C(:C:C:3)C(:O):O):C(C#CC3:C:C(:C:C(:C:3)C3:C:C:C(:C:C:3)C(:O):O)C3:C:C:C(:C:C:3)C(:O):O):C:2C#CC2:C:C(:C:C(:C:2)C2:C:C:C(:C:C:2)C(:O):O)C2:C:C:C(:C:C:2)C(:O):O):C:C(:C:1)C1:C:C:C(:C:C:1)C(:O):O___OC(:O)C1:C:C:C(:C:C:1)C1:C:C(C#CC2:C(C#CC3:C:C(:C:C(:C:3)C3:C:C:C(:C:C:3)C(:O):O)C3:C:C:C(:C:C:3)C(O):O):C(C#CC3:C:C(:C:C(:C:3)C3:C:C:C(:C:C:3)C(:O):O)C3:C:C:C(:C:C:3)C(:O):O):C(C#CC3:C:C(:C:C(:C:3)C3:C:C:C(:C:C:3)C(:O):O)C3:C:C:C(:C:C:3)C(:O):O):C(C#CC3:C:C(:C:C(:C:3)C3:C:C:C(:C:C:3)C(:O):O)C3:C:C:C(:C:C:3)C(:O):O):C:2C#CC2:C:C(:C:C(:C:2)C2:C:C:C(:C:C:2)C(:O):O)C2:C:C:C(:C:C:2)C(O):O):C:C(:C:1)C1:C:C:C(:C:C:1)C(O):O___OC(:O)C1:C:C:C(:C:C:1)C1:C:C(C#CC2:C(C#CC3:C:C(:C:C(:C:3)C3:C:C:C(:C:C:3)C(:O):O)C3:C:C:C(:C:C:3)C(O):O):C(C#CC3:C:C(:C:C(:C:3)C3:C:C:C(:C:C:3)C(:O):O)C3:C:C:C(:C:C:3)C(:O):O):C(C#CC3:C:C(:C:C(:C:3)C3:C:C:C(:C:C:3)C(:O):O)C3:C:C:C(:C:C:3)C(:O):O):C(C#CC3:C:C(:C:C(:C:3)C3:C:C:C(:C:C:3)C(:O):O)C3:C:C:C(:C:C:3)C(O):O):C:2C#CC2:C:C(:C:C(:C:2)C2:C:C:C(:C:C:2)C(:O):O)C2:C:C:C(:C:C:2)C(:O):O):C:C(:C:1)C1:C:C:C(:C:C:1)C(:O):O___OC(:O)C1:C:C:C(:C:C:1)C1:C:C(C#CC2:C(C#CC3:C:C(:C:C(:C:3)C3:C:C:C(:C:C:3)C(:O):O)C3:C:C:C(:C:C:3)C(O):O):C(C#CC3:C:C(:C:C(:C:3)C3:C:C:C(:C:C:3)C(:O):O)C3:C:C:C(:C:C:3)C(O):O):C(C#CC3:C:C(:C:C(:C:3)C3:C:C:C(:C:C:3)C(:O):O)C3:C:C:C(:C:C:3)C(:O):O):C(C#CC3:C:C(:C:C(:C:3)C3:C:C:C(:C:C:3)C(:O):O)C3:C:C:C(:C:C:3)C(:O):O):C:2C#CC2:C:C(:C:C(:C:2)C2:C:C:C(:C:C:2)C(:O):O)C2:C:C:C(:C:C:2)C(O):O):C:C(:C:1)C1:C:C:C(:C:C:1)C(O):O___OC(:O)C1:C:C:C(:C:C:1)C1:C:C(C#CC2:C(C#CC3:C:C(:C:C(:C:3)C3:C:C:C(:C:C:3)C(:O):O)C3:C:C:C(:C:C:3)C(O):O):C(C#CC3:C:C(:C:C(:C:3)C3:C:C:C(:C:C:3)C(:O):O)C3:C:C:C(:C:C:3)C(O):O):C(C#CC3:C:C(:C:C(:C:3)C3:C:C:C(:C:C:3)C(:O):O)C3:C:C:C(:C:C:3)C(:O):O):C(C#CC3:C:C(:C:C(:C:3)C3:C:C:C(:C:C:3)C(:O):O)C3:C:C:C(:C:C:3)C(O):O):C:2C#CC2:C:C(:C:C(:C:2)C2:C:C:C(:C:C:2)C(:O):O)C2:C:C:C(:C:C:2)C(O):O):C:C(:C:1)C1:C:C:C(:C:C:1)C(:O):O___OC(:O)C1:C:C:C(:C:C:1)C1:C:C(C#CC2:C(C#CC3:C:C(:C:C(:C:3)C3:C:C:C(:C:C:3)C(:O):O)C3:C:C:C(:C:C:3)C(O):O):C(C#CC3:C:C(:C:C(:C:3)C3:C:C:C(:C:C:3)C(:O):O)C3:C:C:C(:C:C:3)C(O):O):C(C#CC3:C:C(:C:C(:C:3)C3:C:C:C(:C:C:3)C(:O):O)C3:C:C:C(:C:C:3)C(O):O):C(C#CC3:C:C(:C:C(:C:3)C3:C:C:C(:C:C:3)C(:O):O)C3:C:C:C(:C:C:3)C(:O):O):C:2C#CC2:C:C(:C:C(:C:2)C2:C:C:C(:C:C:2)C(:O):O)C2:C:C:C(:C:C:2)C(O):O):C:C(:C:1)C1:C:C:C(:C:C:1)C(O):O___OC(:O)C1:C:C:C(:C:C:1)C1:C:C(C#CC2:C(C#CC3:C:C(:C:C(:C:3)C3:C:C:C(:C:C:3)C(:O):O)C3:C:C:C(:C:C:3)C(O):O):C(C#CC3:C:C(:C:C(:C:3)C3:C:C:C(:C:C:3)C(:O):O)C3:C:C:C(:C:C:3)C(O):O):C(C#CC3:C:C(:C:C(:C:3)C3:C:C:C(:C:C:3)C(:O):O)C3:C:C:C(:C:C:3)C(O):O):C(C#CC3:C:C(:C:C(:C:3)C3:C:C:C(:C:C:3)C(:O):O)C3:C:C:C(:C:C:3)C(O):O):C:2C#CC2:C:C(:C:C(:C:2)C2:C:C:C(:C:C:2)C(:O):O)C2:C:C:C(:C:C:2)C(O):O):C:C(:C:1)C1:C:C:C(:C:C:1)C(:O):O___OC(:O)C1:C:C:C(:C:C:1)C1:C:C(C#CC2:C(C#CC3:C:C(:C:C(:C:3)C3:C:C:C(:C:C:3)C(:O):O)C3:C:C:C(:C:C:3)C(O):O):C(C#CC3:C:C(:C:C(:C:3)C3:C:C:C(:C:C:3)C(:O):O)C3:C:C:C(:C:C:3)C(O):O):C(C#CC3:C:C(:C:C(:C:3)C3:C:C:C(:C:C:3)C(O):O)C3:C:C:C(:C:C:3)C(O):O):C(C#CC3:C:C(:C:C(:C:3)C3:C:C:C(:C:C:3)C(:O):O)C3:C:C:C(:C:C:3)C(:O):O):C:2C#CC2:C:C(:C:C(:C:2)C2:C:C:C(:C:C:2)C(:O):O)C2:C:C:C(:C:C:2)C(O):O):C:C(:C:1)C1:C:C:C(:C:C:1)C(O):O___OC(:O)C1:C:C:C(:C:C:1)C1:C:C(C#CC2:C(C#CC3:C:C(:C:C(:C:3)C3:C:C:C(:C:C:3)C(:O):O)C3:C:C:C(:C:C:3)C(O):O):C(C#CC3:C:C(:C:C(:C:3)C3:C:C:C(:C:C:3)C(:O):O)C3:C:C:C(:C:C:3)C(O):O):C(C#CC3:C:C(:C:C(:C:3)C3:C:C:C(:C:C:3)C(O):O)C3:C:C:C(:C:C:3)C(O):O):C(C#CC3:C:C(:C:C(:C:3)C3:C:C:C(:C:C:3)C(:O):O)C3:C:C:C(:C:C:3)C(O):O):C:2C#CC2:C:C(:C:C(:C:2)C2:C:C:C(:C:C:2)C(:O):O)C2:C:C:C(:C:C:2)C(O):O):C:C(:C:1)C1:C:C:C(:C:C:1)C(O):O___OC(:O)C1:C:C:C(:C:C:1)C1:C:C(C#CC2:C(C#CC3:C:C(:C:C(:C:3)C3:C:C:C(:C:C:3)C(O):O)C3:C:C:C(:C:C:3)C(O):O):C(C#CC3:C:C(:C:C(:C:3)C3:C:C:C(:C:C:3)C(:O):O)C3:C:C:C(:C:C:3)C(O):O):C(C#CC3:C:C(:C:C(:C:3)C3:C:C:C(:C:C:3)C(:O):O)C3:C:C:C(:C:C:3)C(:O):O):C(C#CC3:C:C(:C:C(:C:3)C3:C:C:C(:C:C:3)C(:O):O)C3:C:C:C(:C:C:3)C(O):O):C:2C#CC2:C:C(:C:C(:C:2)C2:C:C:C(:C:C:2)C(O):O)C2:C:C:C(:C:C:2)C(O):O):C:C(:C:1)C1:C:C:C(:C:C:1)C(O):O___OC(:O)C1:C:C:C(:C:C:1)C1:C:C(C#CC2:C(C#CC3:C:C(:C:C(:C:3)C3:C:C:C(:C:C:3)C(O):O)C3:C:C:C(:C:C:3)C(O):O):C(C#CC3:C:C(:C:C(:C:3)C3:C:C:C(:C:C:3)C(:O):O)C3:C:C:C(:C:C:3)C(O):O):C(C#CC3:C:C(:C:C(:C:3)C3:C:C:C(:C:C:3)C(:O):O)C3:C:C:C(:C:C:3)C(O):O):C(C#CC3:C:C(:C:C(:C:3)C3:C:C:C(:C:C:3)C(:O):O)C3:C:C:C(:C:C:3)C(O):O):C:2C#CC2:C:C(:C:C(:C:2)C2:C:C:C(:C:C:2)C(:O):O)C2:C:C:C(:C:C:2)C(O):O):C:C(:C:1)C1:C:C:C(:C:C:1)C(O):O___OC(:O)C1:C:C:C(:C:C:1)C1:C:C(C#CC2:C(C#CC3:C:C(:C:C(:C:3)C3:C:C:C(:C:C:3)C(O):O)C3:C:C:C(:C:C:3)C(O):O):C(C#CC3:C:C(:C:C(:C:3)C3:C:C:C(:C:C:3)C(O):O)C3:C:C:C(:C:C:3)C(O):O):C(C#CC3:C:C(:C:C(:C:3)C3:C:C:C(:C:C:3)C(:O):O)C3:C:C:C(:C:C:3)C(:O):O):C(C#CC3:C:C(:C:C(:C:3)C3:C:C:C(:C:C:3)C(:O):O)C3:C:C:C(:C:C:3)C(O):O):C:2C#CC2:C:C(:C:C(:C:2)C2:C:C:C(:C:C:2)C(O):O)C2:C:C:C(:C:C:2)C(O):O):C:C(:C:1)C1:C:C:C(:C:C:1)C(O):O___OC(:O)C1:C:C:C(:C:C:1)C1:C:C(C#CC2:C(C#CC3:C:C(:C:C(:C:3)C3:C:C:C(:C:C:3)C(O):O)C3:C:C:C(:C:C:3)C(O):O):C(C#CC3:C:C(:C:C(:C:3)C3:C:C:C(:C:C:3)C(O):O)C3:C:C:C(:C:C:3)C(O):O):C(C#CC3:C:C(:C:C(:C:3)C3:C:C:C(:C:C:3)C(:O):O)C3:C:C:C(:C:C:3)C(O):O):C(C#CC3:C:C(:C:C(:C:3)C3:C:C:C(:C:C:3)C(O):O)C3:C:C:C(:C:C:3)C(O):O):C:2C#CC2:C:C(:C:C(:C:2)C2:C:C:C(:C:C:2)C(O):O)C2:C:C:C(:C:C:2)C(O):O):C:C(:C:1)C1:C:C:C(:C:C:1)C(O):O___OC(:O)C1:C:C:C(:C:C:1)C1:C:C(C#CC2:C(C#CC3:C:C(:C:C(:C:3)C3:C:C:C(:C:C:3)C(O):O)C3:C:C:C(:C:C:3)C(O):O):C(C#CC3:C:C(:C:C(:C:3)C3:C:C:C(:C:C:3)C(O):O)C3:C:C:C(:C:C:3)C(O):O):C(C#CC3:C:C(:C:C(:C:3)C3:C:C:C(:C:C:3)C(O):O)C3:C:C:C(:C:C:3)C(O):O):C(C#CC3:C:C(:C:C(:C:3)C3:C:C:C(:C:C:3)C(O):O)C3:C:C:C(:C:C:3)C(O):O):C:2C#CC2:C:C(:C:C(:C:2)C2:C:C:C(:C:C:2)C(O):O)C2:C:C:C(:C:C:2)C(O):O):C:C(:C:1)C1:C:C:C(:C:C:1)C(O):O,1
SR_dnl_v1-4c_Ni_1_Ch_v2-6c_Ni_1_Ch_v3-3c_triazine_Ch_ntn_edge_1TrU_Ch_1x1x1,0.19773,0.70484,0.974813,1492.76,1455.16,10.1957,7.90588,46719.44616,,,,1472,,720,672,576,C18H1N3Ni5O19,0.12195122,"4,6","4c_Ni_1_Ch,6c_Ni_1_Ch","21,6",O:C(:O)C#CC1:N:C(C#CC(:O):O):N:C(C#CC(:O):O):N:1___O:C(:O)C(:O):O,1
SR_epaa_v1-3c_B_Ch_v2-3c_B_Ch_v3-3c_B_Ch_v4-3c_Cu_imadazoline_Ch_6_edges_1x1x1,0.12323,0.93422,0.171784,5871.29,1008.59,33.65466,19.13144,374683.8879,,,,2772,,216,216,216,C42Cu3F7H19N6,0.040540541,3,3c_Cu_imadazoline_Ch,,None,1
SR_epo_v1-3c_B_Ch_v2-6c_Ni_1_Ch_v3-4c_Ni_1_Ch_1B_2Br_Ch_ntn_edge_1x1x1,0.15647,0.52878,1.56919,517.972,812.797,9.41637,6.33047,14250.2514,,,,748,,198,192,144,Br12C90H34Ni11O40,0.0625,"4,6","4c_Ni_1_Ch,6c_Ni_1_Ch",28,O:C(:O)C1:C:C(:C:C(:C:1)C1:C:C(Br):C(:C:C:1Br)C(:O):O)C(:O):O,1
SR_eft_v1-4c_porphyrin_Ch_v2-8c_Mn_1_Ch_v3-3c_triazine_Ch_1B_2SH_Ch_ntn_edge_2x2x3,0.32482,0.77412,0.567617,3644.3,2068.57,12.71732,10.92084,69473.91542,,,,1812,,240,240,192,C64Cl1H26Mn4N48S8,0.027210884,8,8c_Mn_1_Ch,146,SC1:C:C(:C(S):C:C:1C1:N:C(:N:C(:N:1)C1:N:N:N:N:1)C1:N:N:N:N:1)C1:C2:C:C:C(:N:2):C(C2:C:C(S):C(:C:C:2S)C2:N:C(:N:C(:N:2)C2:N:N:N:N:2)C2:N:N:N:N:2):C2:C:C:C(:[NH]:2):C(C2:C:C(S):C(:C:C:2S)C2:N:C(:N:C(:N:2)C2:N:N:N:N:2)C2:N:N:N:N:2):C2:C:C:C(:N:2):C(C2:C:C(S):C(:C:C:2S)C2:N:C(:N:C(:N:2)C2:N:N:N:N:2)C2:N:N:N:N:2):C2:C:C:C:1:[NH]:2,1
SR_dnx_v1-4c_Ni_1_Ch_v2-4c_1anC_Ch_v3-3c_B_Ch_1B_4Br_Ch_1x1x1,0.16132,0.6196,1.63908,790.354,1295.45,12.2718,6.86608,43170.59547,,,,1296,,108,96,96,Br16C31H2Ni1O4,0.018867925,4,4c_Ni_1_Ch,,None,1
SR_dpb_v1-3c_B_Ch_v2-6c_Mg_1_Ch_v3-3c_B_Ch_ntn_edge_1B_4CN_Ch_1x1x1,0.28796,0.76994,0.504688,3894.78,1965.65,17.34698,7.65403,214489.1804,,,,5376,,960,960,384,C16H3Mg1N4O4,0.037037037,6,6c_Mg_1_Ch,138,N#CC1:C(C#N):C(C2:C:C(:C:C(:C:2)C2:C(C#N):C(C#N):C(C(:O):O):C(C#N):C:2C#N)C2:C:C(:C:C(:C:2)C2:C:C(:C:C(:C:2)C2:C(C#N):C(C#N):C(C(:O):O):C(C#N):C:2C#N)C2:C(C#N):C(C#N):C(C(:O):O):C(C#N):C:2C#N)C2:C:C(:C:C(:C:2)C2:C(C#N):C(C#N):C(C(:O):O):C(C#N):C:2C#N)C2:C(C#N):C(C#N):C(C(:O):O):C(C#N):C:2C#N):C(C#N):C(C#N):C:1C(:O):O,1
SR_epe_v1-4c_Ni_1_Ch_v2-3c_pyrrole_Ch_v3-4c_porphyrin_Ch_1B_2OH_Ch_ntn_edge_1x1x1,0.05056,0.92778,0.170743,4100.56,700.143,52.65778,25.7913,235067.981,,,,2232,,216,192,192,C46H25N4Ni2O16,0.021978022,4,4c_Ni_1_Ch,182,O:C(:O)C1:C:C(O):C(:C:C:1O)C1:C:C:C(C2:C:C(O):C(:C:C:2O)C(:O):O):N:1C1:C2:C:C:C(:N:2):C(:C2:C:C:C(:[NH]:2):C(:C2:C:C:C(:N:2):C(:C2:C:C:C:1:[NH]:2)N1:C(:C:C:C:1C1:C:C(O):C(:C:C:1O)C(:O):O)C1:C:C(O):C(:C:C:1O)C(:O):O)N1:C(:C:C:C:1C1:C:C(O):C(:C:C:1O)C(:O):O)C1:C:C(O):C(:C:C:1O)C(:O):O)N1:C(:C:C:C:1C1:C:C(O):C(:C:C:1O)C(:O):O)C1:C:C(O):C(:C:C:1O)C(:O):O,1
SR_dnx_v1-4c_Cu_1_Ch_v2-4c_1anC_Ch_v3-3c_B_Ch_1B_2F_Ch_1x1x1,0.14914,0.75486,0.623252,3410.85,2125.82,14.53724,8.8102,42328.7169,,,,1296,,108,96,96,C31Cu1F8H10O4,0.018867925,4,4c_Cu_1_Ch,,None,1
SR_dpe_v1-6c_Zr_1_Ch_v2-8c_Zr_1_Ch_v3-4c_porphyrin_Ch_1B_2CH3_Ch_1x1x1,0.1515,0.71642,0.74457,2576.43,1918.33,17.91797,5.90068,43668.0149,,,,1686,,528,528,144,C288H334N12O176Zr33,0.040740741,"6,8","6c_Zr_1_Ch,8c_Zr_1_Ch","110,22",CC1:C:C(:C(C):C:C:1C(:O):O)C1:C2:C:C:C(:N:2):C(C2:C:C(C):C(:C:C:2C)C(:O):O):C2:C:C:C(:[NH]:2):C(C2:C:C(C):C(:C:C:2C)C(:O):O):C2:C:C:C(:N:2):C(C2:C:C(C):C(:C:C:2C)C(:O):O):C2:C:C:C:1:[NH]:2___CC1:C:C(C(:O):O):C(C):C:C:1C(:O):O,1
SR_eps_v1-3c_B_Ch_v2-8c_Co_2_Ch_v3-4c_porphyrin_Ch_2B_4CN_Ch_1x1x1,0.0949,0.86674,0.290609,4736.09,1376.35,33.96481,12.17522,96708.8842,,,,1377,,60,60,48,C300Cl1Co4H30N124,0.008791209,8,8c_Co_2_Ch,454,N#CC1:C(C#N):C(:C(C#N):C(C#N):C:1C1C:N:N:N:1)C1:C(C#N):C(C#N):C(C2:C:C(:C:C(:C:2)C2:C(C#N):C(C#N):C(:C(C#N):C:2C#N)C2:C(C#N):C(C#N):C(:C(C#N):C:2C#N)C2:C3:C:C:C(:N:3):C(C3:C(C#N):C(C#N):C(:C(C#N):C:3C#N)C3:C(C#N):C(C#N):C(C4:C:C(:C:C(:C:4)C4:C(C#N):C(C#N):C(:C(C#N):C:4C#N)C4:C(C#N):C(C#N):C(C5C:N:N:N:5):C(C#N):C:4C#N)C4:C(C#N):C(C#N):C(:C(C#N):C:4C#N)C4:C(C#N):C(C#N):C(C5C:N:N:N:5):C(C#N):C:4C#N):C(C#N):C:3C#N):C3:C:C:C(:[NH]:3):C(C3:C(C#N):C(C#N):C(:C(C#N):C:3C#N)C3:C(C#N):C(C#N):C(C4:C:C(:C:C(:C:4)C4:C(C#N):C(C#N):C(:C(C#N):C:4C#N)C4:C(C#N):C(C#N):C(C5C:N:N:N:5):C(C#N):C:4C#N)C4:C(C#N):C(C#N):C(:C(C#N):C:4C#N)C4:C(C#N):C(C#N):C(C5C:N:N:N:5):C(C#N):C:4C#N):C(C#N):C:3C#N):C3:C:C:C(:N:3):C(C3:C(C#N):C(C#N):C(:C(C#N):C:3C#N)C3:C(C#N):C(C#N):C(C4:C:C(:C:C(:C:4)C4:C(C#N):C(C#N):C(:C(C#N):C:4C#N)C4:C(C#N):C(C#N):C(C5C:N:N:N:5):C(C#N):C:4C#N)C4:C(C#N):C(C#N):C(:C(C#N):C:4C#N)C4:C(C#N):C(C#N):C(C5C:N:N:N:5):C(C#N):C:4C#N):C(C#N):C:3C#N):C3:C:C:C:2:[NH]:3)C2:C(C#N):C(C#N):C(:C(C#N):C:2C#N)C2:C(C#N):C(C#N):C(C3C:N:N:N:3):C(C#N):C:2C#N):C(C#N):C:1C#N,1
SR_epo_v1-3c_pyrrole_Ch_v2-6c_Zn_1_Ch_v3-4c_porphyrin_Ch_1B_2thiophene_Ch_1x1x1,0.07012,0.9245,0.186345,5531.89,1030.84,34.34866,22.59755,189493.2605,,,,1708,,128,128,96,C246H99N12O26S36Zn8,0.019093079,6,6c_Zn_1_Ch,278,O:C(:O)C1:C:C2:C:C3:S:C(:C:C:3:C:C:2:S:1)C1:C:C:C(C2:C:C3:C:C4:S:C(:C:C:4:C:C:3:S:2)C(:O):O):N:1C1:C:C2:C:C3:S:C(:C:C:3:C:C:2:S:1)C1:C2:C:C:C(:N:2):C(C2:C:C3:C:C4:S:C(:C:C:4:C:C:3:S:2)N2:C(:C:C:C:2C2:C:C3:C:C4:S:C(:C:C:4:C:C:3:S:2)C(:O):O)C2:C:C3:C:C4:S:C(:C:C:4:C:C:3:S:2)C(:O):O):C2:C:C:C(:[NH]:2):C(C2:C:C3:C:C4:S:C(:C:C:4:C:C:3:S:2)N2:C(:C:C:C:2C2:C:C3:C:C4:S:C(:C:C:4:C:C:3:S:2)C(:O):O)C2:C:C3:C:C4:S:C(:C:C:4:C:C:3:S:2)C(:O):O):C2:C:C:C(:N:2):C(C2:C:C3:C:C4:S:C(:C:C:4:C:C:3:S:2)N2:C(:C:C:C:2C2:C:C3:C:C4:S:C(:C:C:4:C:C:3:S:2)C(:O):O)C2:C:C3:C:C4:S:C(:C:C:4:C:C:3:S:2)C(:O):O):C2:C:C:C:1:[NH]:2,1
SR_eps_v1-3c_triazine_Ch_v2-8c_Mn_1_Ch_v3-4c_porphyrin_Ch_1B_2DoU_Ch_1x1x1,0.10918,0.93254,0.142299,7212.67,1026.35,40.03633,17.0047,103491.6926,,,,957,,60,60,48,C160Cl1H106Mn4N48,0.012698413,8,8c_Mn_1_Ch,314,C(=CC1:N:N:N:N:1)C1:C:C:C(C=CC2:N:C(C=CC3:C:C:C(C=CC4:N:N:N:N:4):C:C:3):N:C(C=CC3:C:C:C(C=CC4:C5:C:C:C(:N:5):C(C=CC5:C:C:C(C=CC6:N:C(C=CC7:C:C:C(C=CC8:N:N:N:N:8):C:C:7):N:C(C=CC7:C:C:C(C=CC8:N:N:N:N:8):C:C:7):N:6):C:C:5):C5:C:C:C(:[NH]:5):C(C=CC5:C:C:C(C=CC6:N:C(C=CC7:C:C:C(C=CC8:N:N:N:N:8):C:C:7):N:C(C=CC7:C:C:C(C=CC8:N:N:N:N:8):C:C:7):N:6):C:C:5):C5:C:C:C(:N:5):C(C=CC5:C:C:C(C=CC6:N:C(C=CC7:C:C:C(C=CC8:N:N:N:N:8):C:C:7):N:C(C=CC7:C:C:C(C=CC8:N:N:N:N:8):C:C:7):N:6):C:C:5):C5:C:C:C:4:[NH]:5):C:C:3):N:2):C:C:1,1
SR_dnr_v1-4c_ethene_Ch_v2-4c_Ni_1_Ch_v3-3c_B_Ch_1B_2SH_Ch_1x1x2,0.07874,0.85524,0.34823,4264.88,1485.16,33.63709,31.44162,89975.67715,,,,1260,,108,96,96,C53H30Ni2O8S12,0.019417476,4,4c_Ni_1_Ch,206,O:C(:O)C1:C:C(S):C(:C:C:1S)C1:C:C(:C:C(:C:1)C1:C:C(S):C(:C:C:1S)C(:O):O)C1:C:C(S):C(:C:C:1S)C(=C(C1:C:C(S):C(:C:C:1S)C1:C:C(:C:C(:C:1)C1:C:C(S):C(:C:C:1S)C(:O):O)C1:C:C(S):C(:C:C:1S)C(:O):O)C1:C:C(S):C(:C:C:1S)C1:C:C(:C:C(:C:1)C1:C:C(S):C(:C:C:1S)C(:O):O)C1:C:C(S):C(:C:C:1S)C(:O):O)C1:C:C(S):C(:C:C:1S)C1:C:C(:C:C(:C:1)C1:C:C(S):C(:C:C:1S)C(:O):O)C1:C:C(S):C(:C:C:1S)C(:O):O,1
SR_dpa_v1-3c_B_Ch_v2-3c_B_Ch_v3-6c_Mg_1_Ch_ntn_edge_1B_2F_Ch_1x1x1,0.51501,0.6403,0.829703,1802.25,1495.33,7.32909,4.26233,42159.33591,,,,1824,,480,480,192,C9F1H4Mg1O4,0.055555556,6,6c_Mg_1_Ch,84,O:C(:O)C1:C:C(:C:C(:C:1)C1:C:C(F):C(:C:C:1F)C1:C:C(:C:C(:C:1)C1:C:C(F):C(:C:C:1F)C1:C:C(:C:C(:C:1)C(:O):O)C(:O):O)C1:C:C(F):C(:C:C:1F)C1:C:C(:C:C(:C:1)C(:O):O)C(:O):O)C(:O):O,1