name,k,VF,density,ASA_grav,ASA_vol,LPD,PLD,volume,,,,N_atoms,,N_metal_containing_bonds,N_metal_nonmetal_bonds,N_metal_linker_bonds,formula,metal_nonmetal_ratio,metal_node_connectivity,metal_node_name,N_atoms_per_linker,linker_SMILES,N_ccs
SR_dpc_v1-3c_B_Ch_v2-4c_Cd_1_Ch_v3-3c_B_Ch_1B_2SH_Ch_1x1x1,0.06038,0.88384,0.2757,5259.07,1449.93,24.77205,17.1071,384532.0508,,,,5232,,384,384,384,C56Cd1H32O8S12,0.009259259,4,4c_Cd_1_Ch,162,O:C(:O)C1:C:C(S):C(:C:C:1S)C1:C:C(:C:C(:C:1)C1:C:C(S):C(:C:C:1S)C1:C:C(:C:C(:C:1)C1:C:C(S):C(:C:C:1S)C1:C:C(:C:C(:C:1)C1:C:C(S):C(:C:C:1S)C(:O):O)C1:C:C(S):C(:C:C:1S)C(:O):O)C1:C:C(S):C(:C:C:1S)C1:C:C(:C:C(:C:1)C1:C:C(S):C(:C:C:1S)C(:O):O)C1:C:C(S):C(:C:C:1S)C(:O):O)C1:C:C(S):C(:C:C:1S)C(:O):O,1
SR_dnl_v1-4c_Ni_1_Ch_v2-6c_Ni_1_Ch_v3-3c_triazine_Ch_ntn_edge_1B_2CN_Ch_1x1x1,0.21313,0.62016,1.07818,973.756,1049.88,10.9407,6.76147,57319.42659,,,,2432,,720,672,576,C36H7N9Ni5O19,0.070422535,"4,6","4c_Ni_1_Ch,6c_Ni_1_Ch","51,6",N#CC1:C:C(C2:N:C(:N:C(:N:2)C2:C:C(C#N):C(:C:C:2C#N)C(:O):O)C2:C:C(C#N):C(:C:C:2C#N)C(:O):O):C(C#N):C:C:1C(:O):O___O:C(:O)C(:O):O,1
SR_dmf_v1-4c_In_1_Ch_v2-3c_pyrrole_Ch_1B_2CN_Ch_ntn_edge_2x2x2,0.23945,0.52116,1.13057,73.7882,83.4225,6.39645,3.63629,25423.83235,,,,1424,,128,128,128,C52H16In1N12O8,0.011363636,4,4c_In_1_Ch,176,N#CC1:C:C(:C(C#N):C:C:1C(:O):O)C1:C:C:C2C3:C:C:C(C4:C:C(C#N):C(:C:C:4C#N)C(:O):O):N:3N3:C(:C:C:C:3C3:C:C:C(C4:C:C(C#N):C(:C:C:4C#N)C(:O):O):N:3N3:C(:C:C:C:3C3:C:C:C(C4:C:C(C#N):C(:C:C:4C#N)C(:O):O):N:3N3:C(:C:C:C:3C3:C:C:C(C4:C:C(C#N):C(:C:C:4C#N)C(:O):O):N:3N:1:2)C1:C:C(C#N):C(:C:C:1C#N)C(:O):O)C1:C:C(C#N):C(:C:C:1C#N)C(:O):O)C1:C:C(C#N):C(:C:C:1C#N)C(:O):O,1
SR_dnj_v1-8c_Co_1_Ch_v2-6c_B_Ch_v3-3c_pyrrole_Ch_1B_2OH_Ch_ntn_edge_1x1x1,0.22937,0.66072,0.844146,1714.99,1447.7,14.17453,9.40378,20944.62368,,,,942,,120,120,96,C76Co4H40N4O33,0.026143791,8,8c_Co_1_Ch,228,O:C(:O)C1:C:C(O):C(:C:C:1O)C1:C:C:C(C2:C:C(O):C(:C:C:2O)C(:O):O):N:1C1:C(:C(:C(:C(:C:1N1:C(:C:C:C:1C1:C:C(O):C(:C:C:1O)C(:O):O)C1:C:C(O):C(:C:C:1O)C(:O):O)N1:C(:C:C:C:1C1:C:C(O):C(:C:C:1O)C(:O):O)C1:C:C(O):C(:C:C:1O)C(:O):O)N1:C(:C:C:C:1C1:C:C(O):C(:C:C:1O)C(:O):O)C1:C:C(O):C(:C:C:1O)C(:O):O)N1:C(:C:C:C:1C1:C:C(O):C(:C:C:1O)C(:O):O)C1:C:C(O):C(:C:C:1O)C(:O):O)N1:C(:C:C:C:1C1:C:C(O):C(:C:C:1O)C(:O):O)C1:C:C(O):C(:C:C:1O)C(:O):O,1
SR_dnu_v1-4c_ethene_Ch_v2-8c_Mn_1_Ch_v3-4c_ethene_Ch_1B_2CH3_Ch_ntn_edge_1x1x1,0.32819,0.50696,1.09202,420.374,459.056,12.96399,3.66732,32423.59643,,,,2220,,240,240,192,C84Cl1H64Mn4N32,0.022099448,8,8c_Mn_1_Ch,,None,1
SR_epa_v1-6c_Mg_1_Ch_v2-6c_B_Ch_v3-4c_B_Ch_1TrU_Ch_ntn_edge_2x2x1,0.67677,0.57928,0.977639,1427.34,1395.43,7.72962,4.23933,58765.99693,,,,2232,,1080,1080,432,C12H4Mg3O12,0.107142857,6,6c_Mg_1_Ch,"36,20",O:C(:O)C#CC1:C(C#CC(:O):O):C(C#CC(:O):O):C(C#CC(:O):O):C(C#CC(:O):O):C:1C#CC(:O):O___O:C(:O)C1:C:C(C(:O):O):C(:C:C:1C(:O):O)C(:O):O,1
SR_dni_v1-8c_Co_1_Ch_v2-3c_triazine_Ch_v3-3c_B_Ch_1B_2Br_Ch_ntn_edge_1x1x1,0.13362,0.7186,0.929747,1741.12,1618.8,17.59853,4.47792,30857.75613,,,,918,,120,120,96,Br16C84Co4H28N4O17,0.026845638,8,8c_Co_1_Ch,111,O:C(:O)C1:C:C(Br):C(:C:C:1Br)C1:C:C(:C:C(:C:1)C1:C:C(Br):C(:C:C:1Br)C(:O):O)C1:N:C(:N:C(:N:1)C1:C:C(:C:C(:C:1)C1:C:C(Br):C(:C:C:1Br)C(:O):O)C1:C:C(Br):C(:C:C:1Br)C(:O):O)C1:C:C(:C:C(:C:1)C1:C:C(Br):C(:C:C:1Br)C(:O):O)C1:C:C(Br):C(:C:C:1Br)C(:O):O,1
SR_dnj_v1-8c_Co_1_Ch_v2-6c_B_Ch_v3-3c_triazine_Ch_1TrU_Ch_1B_4H_Ch_1x1x1,0.12152,0.83314,0.415919,3295.19,1370.53,22.24874,17.21549,34989.15731,,,,678,,120,120,96,C64Co4H16N12O17,0.036697248,8,8c_Co_1_Ch,162,O:C(:O)C#CC1:N:C(C#CC(:O):O):N:C(:N:1)C1:C:C:C(:C:C:1)C1:C(C2:C:C:C(:C:C:2)C2:N:C(C#CC(:O):O):N:C(C#CC(:O):O):N:2):C(C2:C:C:C(:C:C:2)C2:N:C(C#CC(:O):O):N:C(C#CC(:O):O):N:2):C(C2:C:C:C(:C:C:2)C2:N:C(C#CC(:O):O):N:C(C#CC(:O):O):N:2):C(C2:C:C:C(:C:C:2)C2:N:C(C#CC(:O):O):N:C(C#CC(:O):O):N:2):C:1C1:C:C:C(:C:C:1)C1:N:C(C#CC(:O):O):N:C(C#CC(:O):O):N:1,1
SR_ecf_v1-8c_Co_1_Ch_1B_2NO2_Ch_2x2x2,0.19115,0.5924,1.15949,938.539,1088.23,10.69881,3.84983,101432.8436,,,,4080,,960,960,768,C32Co4H8N8O33,0.049382716,8,8c_Co_1_Ch,20,O:C(:O)C1:C:C(:C(:C:C:1N(:O):O)C(:O):O)N(:O):O,1
SR_dnu_v1-4c_ethene_Ch_v2-8c_Mn_1_Ch_v3-4c_ethene_Ch_1B_2F_Ch_1x1x1,0.38675,0.66402,0.848152,2022.07,1715.02,14.89771,5.52055,64301.07295,,,,2604,,240,240,192,C116Cl1F32H32Mn4N32,0.018779343,8,8c_Mn_1_Ch,,None,1
SR_epc_v1-6c_Fe_1_Ch_v2-4c_1anC_Ch_v3-4c_B_Ch_2B_2Br_Ch_1x1x1,0.09222,0.82508,0.611645,2464.68,1507.51,25.68599,14.90048,72422.25865,,,,1204,,120,120,96,Br48C169Fe6H52O26,0.020338983,6,6c_Fe_1_Ch,"93,100",O:C(:O)C1:C:C(Br):C(:C:C:1Br)C1:C:C(Br):C(:C:C:1Br)C(C1:C:C(Br):C(:C:C:1Br)C1:C:C(Br):C(:C:C:1Br)C(:O):O)(C1:C:C(Br):C(:C:C:1Br)C1:C:C(Br):C(:C:C:1Br)C(:O):O)C1:C:C(Br):C(:C:C:1Br)C1:C:C(Br):C(:C:C:1Br)C(:O):O___O:C(:O)C1:C:C(Br):C(:C:C:1Br)C1:C:C(Br):C(:C:C:1Br)C1:C:C(C2:C:C(Br):C(:C:C:2Br)C2:C:C(Br):C(:C:C:2Br)C(:O):O):C(:C:C:1C1:C:C(Br):C(:C:C:1Br)C1:C:C(Br):C(:C:C:1Br)C(:O):O)C1:C:C(Br):C(:C:C:1Br)C1:C:C(Br):C(:C:C:1Br)C(:O):O,1
SR_dnj_v1-8c_Co_1_Ch_v2-6c_B_Ch_v3-3c_B_Ch_1TrU_Ch_1DoU_Ch_1x1x1,0.16813,0.81344,0.453638,2951.77,1339.03,21.84625,15.22602,27604.0602,,,,654,,120,120,96,C60Co4H28O17,0.038095238,8,8c_Co_1_Ch,156,O:C(:O)C=CC1:C:C(C#CC2:C(C#CC3:C:C(C=CC(:O):O):C:C(C=CC(:O):O):C:3):C(C#CC3:C:C(C=CC(:O):O):C:C(C=CC(:O):O):C:3):C(C#CC3:C:C(C=CC(:O):O):C:C(C=CC(:O):O):C:3):C(C#CC3:C:C(C=CC(:O):O):C:C(C=CC(:O):O):C:3):C:2C#CC2:C:C(C=CC(:O):O):C:C(C=CC(:O):O):C:2):C:C(C=CC(:O):O):C:1,1
SR_ecf_v1-8c_Co_2_Ch_1B_4CN_Ch_1x1x1,0.28499,0.72856,0.669007,2472.77,1654.3,16.77755,6.64292,26001.76376,,,,654,,120,120,96,C56Cl1Co4H8N40,0.038095238,8,8c_Co_2_Ch,26,N#CC1:C(C#N):C(C2C:N:N:N:2):C(C#N):C(C#N):C:1C1C:N:N:N:1,1
SR_eft_v1-4c_porphyrin_Ch_v2-8c_Co_2_Ch_v3-3c_triazine_Ch_1B_2NO2_Ch_ntn_edge_2x2x3,0.48326,0.75828,0.613567,3268.9,2005.69,12.41839,9.57582,67897.60945,,,,2004,,240,240,192,C72Cl1Co4H26N48O16,0.024539877,8,8c_Co_2_Ch,162,O:N(:O)C1:C:C(:C(:C:C:1C1:N:C(:N:C(:N:1)C1C:N:N:N:1)C1C:N:N:N:1)N(:O):O)C1:C2:C:C:C(:N:2):C(C2:C:C(:C(:C:C:2N(:O):O)C2:N:C(:N:C(:N:2)C2C:N:N:N:2)C2C:N:N:N:2)N(:O):O):C2:C:C:C(:[NH]:2):C(C2:C:C(:C(:C:C:2N(:O):O)C2:N:C(:N:C(:N:2)C2C:N:N:N:2)C2C:N:N:N:2)N(:O):O):C2:C:C:C(:N:2):C(C2:C:C(:C(:C:C:2N(:O):O)C2:N:C(:N:C(:N:2)C2C:N:N:N:2)C2C:N:N:N:2)N(:O):O):C2:C:C:C:1:[NH]:2,1
SR_epa_v1-6c_B_Ch_v2-6c_Mg_1_Ch_v3-4c_pyrene_Ch_1DoU_Ch_1TrU_Ch_2x2x1,1.41211,0.6499,0.74288,1824.72,1355.55,12.39482,3.47845,59892.68388,,,,2160,,360,360,144,C19H6Mg1O4,0.034482759,6,6c_Mg_1_Ch,,None,1
SR_edq_v1-3c_B_Ch_v2-6c_Fe_1_Ch_1B_2F_Ch_1x1x1,0.18094,0.82824,0.415664,4438.97,1845.12,15.9549,10.38079,48368.73627,,,,992,,120,120,96,C69F15Fe3H24O13,0.024793388,6,6c_Fe_1_Ch,80,O:C(:O)C1:C:C(F):C(:C:C:1F)C1:C:C(:C:C(:C:1)C1:C:C(F):C(:C:C:1F)C1:C:C(:C:C(:C:1)C1:C:C(F):C(:C:C:1F)C(:O):O)C1:C:C(F):C(:C:C:1F)C(:O):O)C1:C:C(F):C(:C:C:1F)C(:O):O,1
SR_dmg_v1-3c_Cu_imadazoline_Ch_v2-4c_bicyclooctane_Ch_v3-3c_triazine_Ch_1TrU_Ch_ntn_edge_2x2x1,0.14602,0.8747,0.336106,5457.75,1834.38,16.28098,11.76091,24801.41988,,,,376,,48,48,48,C25Cu3H10N9,0.068181818,3,3c_Cu_imadazoline_Ch,"148,14",C(#CC1:C:N:N:C:1)C1=CC2(C#CC3:C:N:N:C:3)C=C3C4:N:C5C#CC6:N:C7:N:C(:N:6)C6=CC8(C#CC9:C:N:N:C:9)C=C(C#CC9:C:N:N:C:9)C6C(=C8)C6:N:C(C#CC8:N:C(:N:C(:N:8)C8=CC9(C#CC%10:C:N:N:C:%10)C=C(C#CC%10:C:N:N:C:%10)C8C(=C9)C(:N:5):N:4)C(=C2)C13):N:C(:N:6)C1=CC2(C#CC3:C:N:N:C:3)C=C(C#CC3:C:N:N:C:3)C1C7=C2___C1:N:N:C:C:1C1:C:N:N:C:1,1
SR_eci_v1-8c_Co_2_Ch_1B_4H_Ch_1x1x1,0.41308,0.7678,0.58087,3540.75,2056.72,12.8113,9.34136,25456.96634,,,,744,,160,160,128,C40Cl1Co4H24N24,0.04494382,8,8c_Co_2_Ch,22,C1:N:N:N:C1C1:C:C:C(:C:C:1)C1C:N:N:N:1,1
SR_dnf_v1-6c_B_Ch_v2-6c_Mg_1_Ch_v3-3c_B_Ch_1B_2OH_Ch_1x1x1,0.27191,0.582,0.913745,0,0,11.89437,3.28638,93642.87993,,,,5280,,480,480,192,C28H16Mg1O10,0.018518519,6,6c_Mg_1_Ch,,None,1
SR_edq_v1-3c_B_Ch_v2-6c_Cr_1_Ch_1B_2F_Ch_ntn_edge_2x2x2,0.55099,0.61708,1.00751,0,0,11.52868,3.4643,87492.8602,,,,4096,,960,960,768,C33Cr3F3H12O13,0.049180328,6,6c_Cr_1_Ch,40,O:C(:O)C1:C:C(:C:C(:C:1)C1:C:C(F):C(:C:C:1F)C1:C:C(:C:C(:C:1)C(:O):O)C(:O):O)C(:O):O,1
SR_epa_v1-6c_B_Ch_v2-6c_Mg_1_Ch_v3-4c_pyrene_Ch_2B_4F_Ch_1x1x1,0.63117,0.78842,0.545829,3248.56,1773.16,18.91396,9.75757,71912.28316,,,,1476,,90,90,36,C49F24H4Mg1O4,0.012345679,6,6c_Mg_1_Ch,,None,1
SR_epa_v1-6c_Mg_1_Ch_v2-6c_B_Ch_v3-4c_ethene_Ch_ntn_edge_1B_2CN_Ch_2x2x1,0.35621,0.3687,1.47591,0,0,6.5344,1.3814,45898.98009,,,,2736,,1080,1080,432,C16H5Mg3N2O12,0.085714286,6,6c_Mg_1_Ch,"96,14",N#CC1:C:C(:C(C#N):C:C:1C(:O):O)C1:C(C2:C:C(C#N):C(:C:C:2C#N)C(:O):O):C(C2:C:C(C#N):C(:C:C:2C#N)C(:O):O):C(C2:C:C(C#N):C(:C:C:2C#N)C(:O):O):C(C2:C:C(C#N):C(:C:C:2C#N)C(:O):O):C:1C1:C:C(C#N):C(:C:C:1C#N)C(:O):O___O:C(:O)C(=C(C(:O):O)C(:O):O)C(:O):O,1
SR_eab_v1-4c_In_1_Ch_v2-4c_In_1_Ch_1B_2CH3_Ch_ntn_edge_1x1x1,0.07454,0.84782,0.420968,4004.2,1685.64,20.65537,12.86169,71317.07817,,,,1236,,288,288,288,C44H32In3O24,0.03,4,4c_In_1_Ch,"22,6",CC1:C:C(C(:O):O):C(C):C:C:1C(:O):O___O:C(:O)C(:O):O,1
SR_dni_v1-8c_Co_1_Ch_v2-3c_triazine_Ch_v3-3c_triazine_Ch_1B_2DoU_Ch_1x1x1,0.09323,0.92196,0.162224,6789.33,1101.39,41.13504,13.24405,157119.4862,,,,1662,,120,120,96,C144Co4H96N16O17,0.014652015,8,8c_Co_1_Ch,204,O:C(:O)C=CC1:C:C:C(C=CC2:N:C(C=CC3:C:C:C(C=CC(:O):O):C:C:3):N:C(C=CC3:C:C:C(C=CC4:N:C(C=CC5:C:C:C(C=CC6:N:C(C=CC7:C:C:C(C=CC(:O):O):C:C:7):N:C(C=CC7:C:C:C(C=CC(:O):O):C:C:7):N:6):C:C:5):N:C(C=CC5:C:C:C(C=CC6:N:C(C=CC7:C:C:C(C=CC(:O):O):C:C:7):N:C(C=CC7:C:C:C(C=CC(:O):O):C:C:7):N:6):C:C:5):N:4):C:C:3):N:2):C:C:1,1
SR_eci_v1-8c_Mn_1_Ch_1B_2CN_Ch_1x1x1,0.31425,0.73984,0.658418,3024.92,1991.66,12.00757,6.92319,26358.2952,,,,744,,160,160,128,C40Cl1H8Mn4N40,0.04494382,8,8c_Mn_1_Ch,22,N#CC1:C:C(C2:N:N:N:N:2):C(C#N):C:C:1C1:N:N:N:N:1,1
SR_epa_v1-6c_Mg_1_Ch_v2-6c_B_Ch_v3-4c_pyrene_Ch_ntn_edge_1B_4F_Ch_2x2x1,0.5425,0.63682,0.872624,1751.94,1528.79,10.83134,4.61009,94833.11289,,,,3312,,1080,1080,432,C21F4H6Mg3O12,0.069767442,6,6c_Mg_1_Ch,"84,34",O:C(:O)C1:C(F):C(F):C(:C(F):C:1F)C1:C(C2:C(F):C(F):C(C(:O):O):C(F):C:2F):C(C2:C(F):C(F):C(C(:O):O):C(F):C:2F):C(C2:C(F):C(F):C(C(:O):O):C(F):C:2F):C(C2:C(F):C(F):C(C(:O):O):C(F):C:2F):C:1C1:C(F):C(F):C(C(:O):O):C(F):C:1F___O:C(:O)C1:C:C(C(:O):O):C2:C:C:C3:C(:C:C(C(:O):O):C4:C:C:C:1:C:2:C:4:3)C(:O):O,1
SR_epe_v1-4c_Cu_1_Ch_v2-3c_pyrrole_Ch_v3-4c_Cu_1_Ch_1B_4F_Ch_1x1x1,0.12107,0.92458,0.218395,3743.21,817.499,51.59779,24.37888,268461.6071,,,,2280,,324,288,288,C50Cu3F24H4N2O12,0.032608696,4,4c_Cu_1_Ch,46,O:C(:O)C1:C(F):C(F):C(:C(F):C:1F)C1:C:C:C(C2:C(F):C(F):C(C(:O):O):C(F):C:2F):N:1C1:C(F):C(F):C(C(:O):O):C(F):C:1F,1
SR_edq_v1-3c_B_Ch_v2-6c_Cr_1_Ch_ntn_edge_1B_2Br_Ch_1x1x1,0.2857,0.75174,0.810838,2392.95,1940.29,12.55517,8.80662,33826.43728,,,,872,,120,120,96,Br12C60Cr3H21O13,0.028301887,6,6c_Cr_1_Ch,70,O:C(:O)C1:C:C(Br):C(:C:C:1Br)C1:C:C(:C:C(:C:1)C1:C:C(Br):C(:C:C:1Br)C(:O):O)C1:C:C(:C:C(:C:1)C1:C:C(Br):C(:C:C:1Br)C(:O):O)C1:C:C(Br):C(:C:C:1Br)C(:O):O,1
SR_ecg_v1-8c_Co_1_Ch_1B_2Br_Ch_1x1x2,0.19957,0.57152,1.56363,721.923,1128.82,9.92295,6.50726,45240.63006,,,,1656,,480,480,384,Br8C32Co4H8O17,0.061538462,8,8c_Co_1_Ch,16,O:C(:O)C1:C:C(Br):C(:C:C:1Br)C(:O):O,1
SR_dnl_v1-4c_porphyrin_Ch_v2-6c_Ni_1_Ch_v3-3c_triazine_Ch_1B_2SH_Ch_ntn_edge_1x1x1,0.20519,0.56162,1.05444,966.146,1018.75,8.14683,3.87432,61757.94991,,,,3392,,288,288,192,C54H28N9Ni2O7S6,0.019230769,6,6c_Ni_1_Ch,"408,408",O:C(:O)C1:C2:C:C:C(:N:2):C2C3:C:C(S):C(:C:C:3S)C3:N:C4:N:C(:N:3)C3:C:C(S):C(:C:C:3S)C3:C5:C:C:C(:N:5):C(C(:O):O):C5:C:C:C(:[NH]:5):C(C(:O):O):C5:C:C:C(:N:5):C(C5:C:C(S):C(:C:C:5S)C5:N:C6:N:C(:N:5)C5:C:C(S):C(:C:C:5S)C5:C7:C:C:C(:N:7):C(C(:O):O):C7:C:C:C(:[NH]:7):C(C(:O):O):C7:C:C:C(:N:7):C(C7:C:C(S):C(:C:C:7S)C7:N:C(:N:C(:N:7)C7:C:C(S):C(:C:C:7S)C7:C8:C:C:C(:N:8):C(C(:O):O):C8:C:C:C(:[NH]:8):C(C(:O):O):C8:C:C:C(:N:8):C(C8:C:C(S):C(:C:C:8S)C8:N:C(:N:C(:N:8)C8:C:C(S):C(:C:C:8S)C8:C9:C:C:C(:N:9):C(C(:O):O):C9:C:C:C(:[NH]:9):C(C(:O):O):C9:C:C:C(:N:9):C(C9:C:C(S):C6:C:C:9S):C6:C:C:C:8:[NH]:6)C6:C:C(S):C(:C:C:6S)C(:C6:C:C:C(:N:6):C(C(:O):O):C6:C:C:C:1:[NH]:6):C1:C:C:C:2:[NH]:1):C1:C:C:C:7:[NH]:1)C1:C:C(S):C(:C:C:1S)C1:C2:C:C:C(:N:2):C(C(:O):O):C2:C:C:C(:[NH]:2):C(C(:O):O):C2:C:C:C(:N:2):C(C2:C:C(S):C4:C:C:2S):C2:C:C:C:1:[NH]:2):C1:C:C:C:5:[NH]:1):C1:C:C:C:3:[NH]:1___O:C(:O)C1:C2:C:C:C(:N:2):C2C3:C:C(S):C(:C:C:3S)C3:N:C4:N:C(:N:3)C3:C:C(S):C(:C:C:3S)C3:C5:C:C:C(:N:5):C(C5:C:C(S):C(:C:C:5S)C5:N:C6:N:C(:N:5)C5:C:C(S):C(:C:C:5S)C5:C7:C:C:C(:N:7):C(C(:O):O):C7:C:C:C(:[NH]:7):C(C(:O):O):C7:C:C:C(:N:7):C(C7:C:C(S):C(:C:C:7S)C7:N:C(:N:C(:N:7)C7:C:C(S):C(:C:C:7S)C7:C8:C:C:C(:N:8):C(C(:O):O):C8:C:C:C(:[NH]:8):C(C(:O):O):C8:C:C:C(:N:8):C(C8:C:C(S):C(:C:C:8S)C8:N:C(:N:C(:N:8)C8:C:C(S):C(:C:C:8S)C8:C9:C:C:C(:N:9):C(C(:O):O):C9:C:C:C(:[NH]:9):C(C(:O):O):C9:C:C:C(:N:9):C(C9:C:C(S):C6:C:C:9S):C6:C:C:C:8:[NH]:6)C6:C:C(S):C(:C:C:6S)C6:C8:C:C:C(:N:8):C(C8:C:C(S):C4:C:C:8S):C4:C:C:C(:[NH]:4):C(C(:O):O):C4:C:C:C(:N:4):C(C(:O):O):C4:C:C:C:6:[NH]:4):C4:C:C:C:7:[NH]:4)C4:C:C(S):C(:C:C:4S)C(:C4:C:C:C(:N:4):C(C(:O):O):C4:C:C:C:1:[NH]:4):C1:C:C:C:2:[NH]:1):C1:C:C:C:5:[NH]:1):C1:C:C:C(:[NH]:1):C(C(:O):O):C1:C:C:C(:N:1):C(C(:O):O):C1:C:C:C:3:[NH]:1,1
SR_dnl_v1-4c_porphyrin_Ch_v2-6c_CdZn_1_Ch_v3-3c_triazine_Ch_1B_2thiophene_Ch_1x1x1,0.10829,0.89636,0.259261,5444.99,1411.68,23.06883,15.78163,411675.1191,,,,5264,,256,256,192,C192Cd3H78N18O13S24Zn1,0.012307692,6,6c_CdZn_1_Ch,,None,1
SR_eci_v1-8c_Co_2_Ch_1B_4Br_Ch_1x1x1,0.296,0.67756,1.23374,1393.86,1719.66,9.77708,7.84286,25577.93074,,,,744,,160,160,128,Br16C40Cl1Co4H8N24,0.04494382,8,8c_Co_2_Ch,22,BrC1:C(Br):C(C2C:N:N:N:2):C(Br):C(Br):C:1C1C:N:N:N:1,1
SR_epa_v1-6c_Mg_1_Ch_v2-6c_B_Ch_v3-4c_B_Ch_1B_2SH_Ch_2x2x1,0.22357,0.69058,0.705857,2340.97,1652.39,15.13781,6.11643,158383.7893,,,,4680,,1080,1080,432,C28H16Mg3O12S6,0.048387097,6,6c_Mg_1_Ch,"96,68",O:C(:O)C1:C:C(S):C(:C:C:1S)C1:C(C2:C:C(S):C(:C:C:2S)C(:O):O):C(C2:C:C(S):C(:C:C:2S)C(:O):O):C(C2:C:C(S):C(:C:C:2S)C(:O):O):C(C2:C:C(S):C(:C:C:2S)C(:O):O):C:1C1:C:C(S):C(:C:C:1S)C(:O):O___O:C(:O)C1:C:C(S):C(:C:C:1S)C1:C:C(C2:C:C(S):C(:C:C:2S)C(:O):O):C(:C:C:1C1:C:C(S):C(:C:C:1S)C(:O):O)C1:C:C(S):C(:C:C:1S)C(:O):O,1
SR_eci_v1-8c_Co_1_Ch_1B_2CN_Ch_2x2x1,0.21729,0.57202,1.14336,992.491,1134.77,8.63249,4.50171,51560.11957,,,,2464,,640,640,512,C40Co4H8N8O17,0.054794521,8,8c_Co_1_Ch,18,N#CC1:C:C(C(:O):O):C(C#N):C:C:1C(:O):O,1
SR_dnx_v1-4c_Cu_1_Ch_v2-4c_1anC_Ch_v3-3c_B_Ch_1B_2NH2_Ch_ntn_edge_1x1x1,0.40281,0.44196,1.33998,0,0,6.58876,1.86941,12681.86031,,,,1008,,108,96,96,C19Cu1H14N4O4,0.024390244,4,4c_Cu_1_Ch,492,NC1:C:C(:C(N):C:C:1C(:O):O)C1(C2:C:C3:C:C(:C:2)C(C2:C:C4:C:C(:C:2)C(C2:C:C5:C:C(:C:2)C(C2:C:C6:C:C(:C:2)C(C2:C:C(:C:C(:C:2)C4(C2:C:C(N):C(:C:C:2N)C(:O):O)C2:C:C(N):C(:C:C:2N)C(:O):O)C(C2:C:C1:C:C(:C:2)C(C1:C:C(:C:C(:C:1)C6(C1:C:C(N):C(:C:C:1N)C(:O):O)C1:C:C(N):C(:C:C:1N)C(:O):O)C(C1:C:C(:C:C(:C:1)C5(C1:C:C(N):C(:C:C:1N)C(:O):O)C1:C:C(N):C(:C:C:1N)C(:O):O)C3(C1:C:C(N):C(:C:C:1N)C(:O):O)C1:C:C(N):C(:C:C:1N)C(:O):O)(C1:C:C(N):C(:C:C:1N)C(:O):O)C1:C:C(N):C(:C:C:1N)C(:O):O)(C1:C:C(N):C(:C:C:1N)C(:O):O)C1:C:C(N):C(:C:C:1N)C(:O):O)(C1:C:C(N):C(:C:C:1N)C(:O):O)C1:C:C(N):C(:C:C:1N)C(:O):O)(C1:C:C(N):C(:C:C:1N)C(:O):O)C1:C:C(N):C(:C:C:1N)C(:O):O)(C1:C:C(N):C(:C:C:1N)C(:O):O)C1:C:C(N):C(:C:C:1N)C(:O):O)(C1:C:C(N):C(:C:C:1N)C(:O):O)C1:C:C(N):C(:C:C:1N)C(:O):O)(C1:C:C(N):C(:C:C:1N)C(:O):O)C1:C:C(N):C(:C:C:1N)C(:O):O)C1:C:C(N):C(:C:C:1N)C(:O):O,1
SR_epa_v1-6c_B_Ch_v2-6c_Mg_1_Ch_v3-4c_B_Ch_1TrU_Ch_1B_4H_Ch_2x2x1,1.23849,0.63368,0.754631,1680.4,1268.08,11.86129,3.79725,66460.0818,,,,2664,,360,360,144,C22H10Mg1O4,0.027777778,6,6c_Mg_1_Ch,,None,1
SR_epc_v1-6c_Al_1_Ch_v2-4c_1anC_Ch_v3-4c_ethene_Ch_1B_2NH2_Ch_1x1x1,0.24738,0.67352,0.722718,1944.09,1405.03,14.05429,8.2162,18893.18725,,,,868,,120,120,96,Al6C89H72N24O26,0.028436019,6,6c_Al_1_Ch,"69,70",NC1:C:C(:C(N):C:C:1C(:O):O)C(C1:C:C(N):C(:C:C:1N)C(:O):O)(C1:C:C(N):C(:C:C:1N)C(:O):O)C1:C:C(N):C(:C:C:1N)C(:O):O___NC1:C:C(C(:O):O):C(N):C:C:1C(=C(C1:C:C(N):C(:C:C:1N)C(:O):O)C1:C:C(N):C(:C:C:1N)C(:O):O)C1:C:C(N):C(:C:C:1N)C(:O):O,1
SR_ecf_v1-8c_Mn_1_Ch_1TrU_Ch_2x2x2,0.33489,0.80828,0.544445,3490.6,1900.44,18.91395,8.42707,151440.1629,,,,2544,,960,960,768,C16Cl1Mn4N32,0.081632653,8,8c_Mn_1_Ch,12,C(#CC1:N:N:N:N:1)C1:N:N:N:N:1,1
SR_dna_v1-8c_Co_2_Ch_v2-6c_B_Ch_v3-3c_triazine_Ch_1TrU_Ch_1x1x1,0.26184,0.84694,0.381129,3680.29,1402.66,31.94747,13.81605,76129.84351,,,,1260,,240,240,192,C56Cl1Co4H8N36,0.03960396,8,8c_Co_2_Ch,150,C(#CC1:N:C(C#CC2C:N:N:N:2):N:C(C#CC2:C(C#CC3:N:C(C#CC4C:N:N:N:4):N:C(C#CC4C:N:N:N:4):N:3):C(C#CC3:N:C(C#CC4C:N:N:N:4):N:C(C#CC4C:N:N:N:4):N:3):C(C#CC3:N:C(C#CC4C:N:N:N:4):N:C(C#CC4C:N:N:N:4):N:3):C(C#CC3:N:C(C#CC4C:N:N:N:4):N:C(C#CC4C:N:N:N:4):N:3):C:2C#CC2:N:C(C#CC3C:N:N:N:3):N:C(C#CC3C:N:N:N:3):N:2):N:1)C1C:N:N:N:1,1
SR_dnj_v1-8c_Co_1_Ch_v2-6c_B_Ch_v3-3c_triazine_Ch_ntn_edge_1DoU_Ch_1x1x1,0.20581,0.75808,0.648884,2405.83,1561.11,17.2329,11.63854,18008.28374,,,,534,,120,120,96,C40Co4H16N12O17,0.047058824,8,8c_Co_1_Ch,126,O:C(:O)C=CC1:N:C(C=CC(:O):O):N:C(:N:1)C1:C(C2:N:C(C=CC(:O):O):N:C(C=CC(:O):O):N:2):C(C2:N:C(C=CC(:O):O):N:C(C=CC(:O):O):N:2):C(C2:N:C(C=CC(:O):O):N:C(C=CC(:O):O):N:2):C(C2:N:C(C=CC(:O):O):N:C(C=CC(:O):O):N:2):C:1C1:N:C(C=CC(:O):O):N:C(C=CC(:O):O):N:1,1