name,k,VF,density,ASA_grav,ASA_vol,LPD,PLD,volume,,,,N_atoms,,N_metal_containing_bonds,N_metal_nonmetal_bonds,N_metal_linker_bonds,formula,metal_nonmetal_ratio,metal_node_connectivity,metal_node_name,N_atoms_per_linker,linker_SMILES,N_ccs
SR_ced_v1-3c_B_Ch_v2-12c_Mn_1_Ch_ntn_edge_1B_2SH_Ch_2x2x2,0.20995,0.59576,0.991223,1480.87,1467.87,7.3403,4.3674,48537.97326,,,,1960,,336,336,144,C120H66Mn8O27S24,0.033755274,12,12c_Mn_1_Ch,78,OC(:O)C1:C:C(S):C(:C:C:1S)C1:C:C(:C:C(:C:1)C1:C:C(S):C(:C:C:1S)C(:O):O)C1:C:C(:C:C(:C:1)C1:C:C(S):C(:C:C:1S)C(:O):O)C1:C:C(S):C(:C:C:1S)C(O):O,1
SR_crs_v1-6c_CdZn_1_Ch_2B_1DoU_Ch_1x1x1,0.05679,0.92914,0.197504,5264.05,1039.67,32.17726,24.66891,163764.7084,,,,1520,,256,256,192,C48Cd3H30O13Zn1,0.043956044,6,6c_CdZn_1_Ch,30,O:C(:O)C1:C:C:C(C=CC2:C:C:C(:C:C:2)C(:O):O):C:C:1,1
SR_cut_v1-8c_Mn_1_Ch_v2-3c_pyrrole_Ch_3B_fused_8H_Ch_1x1x2,0.17679,0.90298,0.204986,5772.4,1183.26,28.46536,26.13804,48504.58132,,,,586,,40,40,32,C164Cl1H88Mn4N36,0.01384083,8,8c_Mn_1_Ch,144,C1:C:C2:C(:C:C:C3:C:C(:C:C:C:3:2)C2:C:C:C(C3:C:C:C4:C(:C:C:C5:C:C(:C:C:C:5:4)C4:C:C:C(C5:C:C:C6:C(:C:C:C7:C:C(:C:C:C:7:6)C6:N:N:N:N:6):C:5):N:4C4:C:C:C5:C(:C:C:C6:C:C(:C:C:C:6:5)C5:N:N:N:N:5):C:4):C:3):N:2C2:C:C:C3:C(:C:C:C4:C:C(:C:C:C:4:3)C3:N:N:N:N:3):C:2):C:C:1C1:N:N:N:N:1,1
SR_cdj_v1-3c_B_Ch_v2-6c_Zn_1_Ch_1B_2F_Ch_ntn_edge_1x1x1,0.18646,0.7158,0.831769,2181.01,1814.1,10.12754,5.25365,14933.40976,,,,520,,128,128,96,C33F3H12O13Zn4,0.06557377,6,6c_Zn_1_Ch,40,O:C(:O)C1:C:C(:C:C(:C:1)C1:C:C(F):C(:C:C:1F)C1:C:C(:C:C(:C:1)C(:O):O)C(:O):O)C(:O):O,1
SR_ceq_v1-6c_Al_1_Ch_v2-6c_bicyclooctane_Ch_v3-3c_pyrrole_Ch_4B_fused_8H_Ch_1x1x1,0.14246,0.84808,0.312815,5308.23,1660.49,18.82897,15.06636,25474.1341,,,,516,,15,15,12,Al3C334H160N6O13,0.005847953,6,6c_Al_1_Ch,,None,1
SR_ceq_v1-6c_Cr_1_Ch_v2-6c_Cr_1_Ch_v3-3c_triazine_Ch_2B_2CN_Ch_1x1x1,0.13065,0.8681,0.289088,5478.11,1583.65,19.26703,16.68442,41931.234,,,,534,,45,45,36,C108Cr3H24N30O13,0.017142857,6,6c_Cr_1_Ch,87,N#CC1:C:C(:C(C#N):C:C:1C(:O):O)C1:C:C(C#N):C(:C:C:1C#N)C1:N:C(:N:C(:N:1)C1:C:C(C#N):C(:C:C:1C#N)C1:C:C(C#N):C(:C:C:1C#N)C(:O):O)C1:C:C(C#N):C(:C:C:1C#N)C1:C:C(C#N):C(:C:C:1C#N)C(:O):O,1
SR_ces_v1-4c_B_Ch_v2-6c_Fe_1_Ch_v3-4c_porphyrin_Ch_1B_2indole_Ch_ntn_edge_2x2x1,0.4354,0.81042,0.429752,4360.75,1874.04,15.69175,12.96764,73240.20319,,,,1640,,120,120,96,C114Fe3H57N18O13,0.014851485,6,6c_Fe_1_Ch,402,O:C(:O)C1:C:C2:C:C3:[NH]:C(:C:C:3:C:C:2:[NH]:1)C1:C:C2:C(:C:C:1C1:C:C3:C:C4:[NH]:C(:C:C:4:C:C:3:[NH]:1)C(:O):O)C1:C3:C:C:C(:N:3):C3C4:C:C(C5:C:C6:C:C7:[NH]:C(:C:C:7:C:C:6:[NH]:5)C(:O):O):C(:C:C:4C4:C5:C:C:C(:N:5):C5C6:C:C(C7:C:C8:C:C9:[NH]:C(:C:C:9:C:C:8:[NH]:7)C(:O):O):C(:C:C:6C6:C7:C:C:C(:N:7):C2:C2:C:C:C(:[NH]:2):C2C7:C:C(C8:C:C9:C:C%10:[NH]:C(:C:C:%10:C:C:9:[NH]:8)C(:O):O):C(:C:C:7C(:C7:C:C:C(:N:7):C(C7:C:C(C8:C:C9:C:C%10:[NH]:C(:C:C:%10:C:C:9:[NH]:8)C(:O):O):C(:C:C:7C(:C7:C:C:C(:N:7):C(C7:C:C(C8:C:C9:C:C%10:[NH]:C(:C:C:%10:C:C:9:[NH]:8)C(:O):O):C(:C:C:7C(:C7:C:C:C:2:N:7):C2:C:C:C:6:[NH]:2)C2:C:C6:C:C7:[NH]:C(:C:C:7:C:C:6:[NH]:2)C(:O):O):C2:C:C:C:5:[NH]:2):C2:C:C:C:4:[NH]:2)C2:C:C4:C:C5:[NH]:C(:C:C:5:C:C:4:[NH]:2)C(:O):O):C2:C:C:C:3:[NH]:2):C2:C:C:C:1:[NH]:2)C1:C:C2:C:C3:[NH]:C(:C:C:3:C:C:2:[NH]:1)C(:O):O)C1:C:C2:C:C3:[NH]:C(:C:C:3:C:C:2:[NH]:1)C(:O):O)C1:C:C2:C:C3:[NH]:C(:C:C:3:C:C:2:[NH]:1)C(:O):O,1
SR_ceq_v1-6c_Fe_1_Ch_v2-6c_Fe_1_Ch_v3-3c_triazine_Ch_ntn_edge_1B_2NO2_Ch_2x2x2,0.35505,0.69514,0.842767,2325.32,1959.7,10.37737,6.17017,51129.20996,,,,1488,,360,360,288,C24Fe3H4N10O21,0.050847458,6,6c_Fe_1_Ch,29,O:C(:O)C1:N:C(:N:C(:N:1)C1:C:C(:C(:C:C:1N(:O):O)C(:O):O)N(:O):O)C(:O):O,1
SR_cut_v1-8c_Co_2_Ch_v2-3c_pyrrole_Ch_1B_2CF3_Ch_ntn_edge_2x2x2,0.13593,0.7059,0.786456,1995.52,1569.39,12.59379,9.59272,48052.6327,,,,1672,,160,160,128,C96Cl1Co4F48H32N28,0.019512195,8,8c_Co_2_Ch,102,FC(F)(F)C1:C:C(:C(:C:C:1C1C:N:N:N:1)C(F)(F)F)C1:C:C:C(C2:C:C:C(C3:C:C(:C(:C:C:3C(F)(F)F)C3C:N:N:N:3)C(F)(F)F):N:2C2:C:C(:C(:C:C:2C(F)(F)F)C2C:N:N:N:2)C(F)(F)F):N:1C1:C:C(:C(:C:C:1C(F)(F)F)C1C:N:N:N:1)C(F)(F)F,1
SR_brl_v1-4c_Ni_1_Ch_v2-4c_bicyclooctane_Ch_1B_2furan_Ch_1x1x2,0.12638,0.90274,0.230502,5850.82,1348.62,22.46449,18.65798,70586.92963,,,,804,,54,48,48,C40H16Ni1O10,0.015151515,4,4c_Ni_1_Ch,396,O:C(:O)C1:C:C2:C:C3:O:C(:C:C:3:C:C:2:O:1)C1=CC23C=C(C4:C:C5:C:C6:O:C(:C:C:6:C:C:5:O:4)C4=CC5(C=C(C6:C:C7:C:C8:O:C(:C:C:8:C:C:7:O:6)C(:O):O)C4C(=C5)C4:C:C5:C:C6:O:C(:C:C:6:C:C:5:O:4)C(:O):O)C4:C:C5:C:C6:O:C(:C:C:6:C:C:5:O:4)C4=CC5(C=C(C6:C:C7:C:C8:O:C(:C:C:8:C:C:7:O:6)C(:O):O)C4C(=C5)C4:C:C5:C:C6:O:C(:C:C:6:C:C:5:O:4)C(:O):O)C4:C:C5:C:C6:O:C(:C:C:6:C:C:5:O:4)C45C=C(C6:C:C7:C:C8:O:C(:C:C:8:C:C:7:O:6)C(:O):O)C(C(=C4)C4:C:C6:C:C7:O:C(:C:C:7:C:C:6:O:4)C(:O):O)C(=C5)C4:C:C5:C:C6:O:C(:C:C:6:C:C:5:O:4)C45C=C(C6:C:C7:C:C8:O:C(:C:C:8:C:C:7:O:6)C(:O):O)C(C(=C4)C4:C:C6:C:C7:O:C(:C:C:7:C:C:6:O:4)C(:O):O)C(=C5)C4:C:C5:C:C6:O:C(:C:C:6:C:C:5:O:4)C45C=C(C6:C:C7:C:C8:O:C(:C:C:8:C:C:7:O:6)C(:O):O)C(C(=C4)C4:C:C6:C:C7:O:C(:C:C:7:C:C:6:O:4)C(:O):O)C(=C5)C4:C:C5:C:C6:O:C2:C:C:6:C:C:5:O:4)C1C(=C3)C1:C:C2:C:C3:O:C(:C:C:3:C:C:2:O:1)C(:O):O,1
SR_ces_v1-4c_B_Ch_v2-6c_Cr_1_Ch_v3-4c_porphyrin_Ch_1B_2OH_Ch_2x2x1,0.24175,0.73814,0.594925,3518.54,2093.27,13.73085,6.49771,62945.63064,,,,1928,,120,120,96,C126Cr3H69N6O37,0.012605042,6,6c_Cr_1_Ch,474,O:C(:O)C1:C:C(O):C(:C:C:1O)C1:C:C2C3:C:C(O):C(:C:C:3O)C3:C4:C:C:C(:N:4):C4C5:C:C(O):C(:C:C:5O)C5:C:C(C6:C:C(O):C(:C:C:6O)C(:O):O):C(:C:C:5C5:C:C(O):C(:C:C:5O)C5:C6:C:C:C(:N:6):C(C6:C:C(O):C(:C:C:6O)C:2:C:C:1C1:C:C(O):C(:C:C:1O)C(:O):O):C1:C:C:C(:[NH]:1):C1C2:C:C(O):C(:C:C:2O)C2:C:C(C6:C:C(O):C(:C:C:6O)C(:O):O):C(:C:C:2C2:C:C(O):C(:C:C:2O)C2:C6:C:C:C(:N:6):C(C6:C:C(O):C(:C:C:6O)C6:C:C(C7:C:C(O):C(:C:C:7O)C(:O):O):C(:C:C:6C6:C:C(O):C(:C:C:6O)C(:C6:C:C:C:1:N:6):C1:C:C:C:5:[NH]:1)C1:C:C(O):C(:C:C:1O)C(:O):O):C1:C:C:C(:[NH]:1):C1C5:C:C(O):C(:C:C:5O)C5:C:C(C6:C:C(O):C(:C:C:6O)C(:O):O):C(:C:C:5C5:C:C(O):C(:C:C:5O)C(:C5:C:C:C(:N:5):C(C5:C:C(O):C(:C:C:5O)C5:C:C(C6:C:C(O):C(:C:C:6O)C(:O):O):C(:C:C:5C5:C:C(O):C(:C:C:5O)C(:C5:C:C:C:1:N:5):C1:C:C:C:2:[NH]:1)C1:C:C(O):C(:C:C:1O)C(:O):O):C1:C:C:C:3:[NH]:1):C1:C:C:C:4:[NH]:1)C1:C:C(O):C(:C:C:1O)C(:O):O)C1:C:C(O):C(:C:C:1O)C(:O):O)C1:C:C(O):C(:C:C:1O)C(:O):O,1
SR_cut_v1-8c_Co_1_Ch_v2-3c_pyrrole_Ch_2B_4F_Ch_ntn_edge_1x1x2,0.10308,0.7606,0.661754,2935.04,1942.27,14.6421,10.63404,16215.22126,,,,434,,40,40,32,C120Co4F64H8N4O17,0.018779343,8,8c_Co_1_Ch,106,O:C(:O)C1:C(F):C(F):C(:C(F):C:1F)C1:C(F):C(F):C(:C(F):C:1F)C1:C:C:C(C2:C(F):C(F):C(:C(F):C:2F)C2:C(F):C(F):C(C(:O):O):C(F):C:2F):N:1N1:C(:C:C:C:1C1:C(F):C(F):C(:C(F):C:1F)C1:C(F):C(F):C(C(:O):O):C(F):C:1F)C1:C(F):C(F):C(:C(F):C:1F)C1:C(F):C(F):C(C(:O):O):C(F):C:1F,1
SR_ceh_v1-3c_pyrrole_Ch_v2-6c_Mg_1_Ch_v3-4c_bicyclooctane_Ch_1B_2CN_Ch_ntn_edge_2x2x3,0.35222,0.47988,1.10509,0,0,5.90928,2.22612,58964.62854,,,,3240,,360,360,144,C26H9Mg1N5O4,0.022727273,6,6c_Mg_1_Ch,,None,1
SR_ceg_v1-3c_B_Ch_v2-6c_Ni_1_Ch_v3-4c_porphyrin_Ch_2B_4CN_Ch_ntn_edge_1x1x2,0.16921,0.70434,0.636215,2684.45,1707.88,13.56438,10.03513,37151.75835,,,,1036,,36,36,24,C171H25N54Ni2O7,0.007782101,6,6c_Ni_1_Ch,,None,1
SR_bwt_v1-3c_Cu_imadazoline_Ch_v2-3c_pyrrole_Ch_1B_2furan_Ch_1x1x1,0.08367,0.91044,0.227245,5212.63,1184.55,26.48033,18.30159,161578.4526,,,,1896,,144,144,144,C43Cu3H20N7O6,0.039473684,3,3c_Cu_imadazoline_Ch,76,C1:N:N:C:C:1C1:C:C2:C:C3:O:C(:C:C:3:C:C:2:O:1)C1:C:C:C(C2:C:C3:C:C4:O:C(:C:C:4:C:C:3:O:2)C2:C:N:N:C:2):N:1C1:C:C2:C:C3:O:C(:C:C:3:C:C:2:O:1)C1:C:N:N:C:1,1
SR_brl_v1-4c_Cu_1_Ch_v2-4c_1anC_Ch_ntn_edge_2B_4H_Ch_2x2x2,0.27407,0.70664,0.654915,2941.54,1926.46,11.53736,7.07238,64612.64819,,,,2304,,216,192,192,C27Cu1H16O4,0.021276596,4,4c_Cu_1_Ch,282,O:C(:O)C1:C:C:C(:C:C:1)C1:C:C:C(:C:C:1)C1(C2:C:C:C(:C:C:2)C2:C:C:C(:C:C:2)C(:O):O)C(C2:C:C:C(:C:C:2)C2:C:C:C(:C:C:2)C(:O):O)(C2:C:C:C(:C:C:2)C2:C:C:C(:C:C:2)C(:O):O)C(C2:C:C:C(:C:C:2)C2:C:C:C(:C:C:2)C(:O):O)(C2:C:C:C(:C:C:2)C2:C:C:C(:C:C:2)C(:O):O)C(C2:C:C:C(:C:C:2)C2:C:C:C(:C:C:2)C(:O):O)(C2:C:C:C(:C:C:2)C2:C:C:C(:C:C:2)C(:O):O)C(C2:C:C:C(:C:C:2)C2:C:C:C(:C:C:2)C(:O):O)(C2:C:C:C(:C:C:2)C2:C:C:C(:C:C:2)C(:O):O)C1(C1:C:C:C(:C:C:1)C1:C:C:C(:C:C:1)C(:O):O)C1:C:C:C(:C:C:1)C1:C:C:C(:C:C:1)C(:O):O,1
SR_cer_v1-3c_triazine_Ch_v2-6c_bicyclooctane_Ch_v3-6c_CdZn_1_Ch_2B_1TrU_Ch_1x1x1,0.06681,0.93106,0.157015,6936.59,1089.15,24.87713,20.18509,123987.8172,,,,976,,64,64,48,C145Cd3H73N9O13Zn1,0.016666667,6,6c_CdZn_1_Ch,478,O:C(:O)C1:C:C:C(C#CC2:C:C:C(:C:C:2)C2:N:C(:N:C(:N:2)C2:C:C:C(C#CC3:C:C:C(:C:C:3)C(:O):O):C:C:2)C2:C:C:C(C#CC3:C:C:C(:C:C:3)C3=C(C4:C:C:C(C#CC5:C:C:C(:C:C:5)C5:N:C(:N:C(:N:5)C5:C:C:C(C#CC6:C:C:C(:C:C:6)C(:O):O):C:C:5)C5:C:C:C(C#CC6:C:C:C(:C:C:6)C(:O):O):C:C:5):C:C:4)C4C(=C(C5:C:C:C(C#CC6:C:C:C(:C:C:6)C6:N:C(:N:C(:N:6)C6:C:C:C(C#CC7:C:C:C(:C:C:7)C(:O):O):C:C:6)C6:C:C:C(C#CC7:C:C:C(:C:C:7)C(:O):O):C:C:6):C:C:5)C3C(=C4C3:C:C:C(C#CC4:C:C:C(:C:C:4)C4:N:C(:N:C(:N:4)C4:C:C:C(C#CC5:C:C:C(:C:C:5)C(:O):O):C:C:4)C4:C:C:C(C#CC5:C:C:C(:C:C:5)C(:O):O):C:C:4):C:C:3)C3:C:C:C(C#CC4:C:C:C(:C:C:4)C4:N:C(:N:C(:N:4)C4:C:C:C(C#CC5:C:C:C(:C:C:5)C(:O):O):C:C:4)C4:C:C:C(C#CC5:C:C:C(:C:C:5)C(:O):O):C:C:4):C:C:3)C3:C:C:C(C#CC4:C:C:C(:C:C:4)C4:N:C(:N:C(:N:4)C4:C:C:C(C#CC5:C:C:C(:C:C:5)C(:O):O):C:C:4)C4:C:C:C(C#CC5:C:C:C(:C:C:5)C(:O):O):C:C:4):C:C:3):C:C:2):C:C:1,1
SR_brl_v1-4c_V_1_Ch_v2-4c_1anC_Ch_ntn_edge_2B_4Br_Ch_2x2x2,0.21045,0.52644,2.10777,517.794,1091.39,9.08898,5.61725,76142.45532,,,,2304,,216,192,192,Br16C27O4V1,0.021276596,4,4c_V_1_Ch,282,O:C(:O)C1:C(Br):C(Br):C(:C(Br):C:1Br)C1:C(Br):C(Br):C(:C(Br):C:1Br)C1(C2:C(Br):C(Br):C(:C(Br):C:2Br)C2:C(Br):C(Br):C(C(:O):O):C(Br):C:2Br)C(C2:C(Br):C(Br):C(:C(Br):C:2Br)C2:C(Br):C(Br):C(C(:O):O):C(Br):C:2Br)(C2:C(Br):C(Br):C(:C(Br):C:2Br)C2:C(Br):C(Br):C(C(:O):O):C(Br):C:2Br)C(C2:C(Br):C(Br):C(:C(Br):C:2Br)C2:C(Br):C(Br):C(C(:O):O):C(Br):C:2Br)(C2:C(Br):C(Br):C(:C(Br):C:2Br)C2:C(Br):C(Br):C(C(:O):O):C(Br):C:2Br)C(C2:C(Br):C(Br):C(:C(Br):C:2Br)C2:C(Br):C(Br):C(C(:O):O):C(Br):C:2Br)(C2:C(Br):C(Br):C(:C(Br):C:2Br)C2:C(Br):C(Br):C(C(:O):O):C(Br):C:2Br)C(C2:C(Br):C(Br):C(:C(Br):C:2Br)C2:C(Br):C(Br):C(C(:O):O):C(Br):C:2Br)(C2:C(Br):C(Br):C(:C(Br):C:2Br)C2:C(Br):C(Br):C(C(:O):O):C(Br):C:2Br)C1(C1:C(Br):C(Br):C(:C(Br):C:1Br)C1:C(Br):C(Br):C(C(:O):O):C(Br):C:1Br)C1:C(Br):C(Br):C(:C(Br):C:1Br)C1:C(Br):C(Br):C(C(:O):O):C(Br):C:1Br,1
SR_ced_v1-3c_triazine_Ch_v2-12c_Mn_1_Ch_1B_2OH_Ch_ntn_edge_2x2x2,0.20583,0.64758,0.888253,2002.39,1778.63,9.00291,5.15067,48132.38099,,,,1816,,336,336,144,C102H48Mn8N18O51,0.03652968,12,12c_Mn_1_Ch,"72,72",OC(:O)C1:C:C(O):C(:C:C:1O)C1:N:C(:N:C(:N:1)C1:C:C(O):C(:C:C:1O)C(:O):O)C1:N:C(:N:C(:N:1)C1:C:C(O):C(:C:C:1O)C(:O):O)C1:C:C(O):C(:C:C:1O)C(:O):O___OC(:O)C1:C:C(O):C(:C:C:1O)C1:N:C(:N:C(:N:1)C1:C:C(O):C(:C:C:1O)C(:O):O)C1:N:C(:N:C(:N:1)C1:C:C(O):C(:C:C:1O)C(:O):O)C1:C:C(O):C(:C:C:1O)C(O):O,1
SR_cer_v1-3c_triazine_Ch_v2-6c_bicyclooctane_Ch_v3-6c_Ni_1_Ch_ntn_edge_2B_2CN_Ch_2x2x1,0.18124,0.70876,0.726112,2890.51,2098.84,9.62824,7.07988,67241.96273,,,,1936,,288,288,192,C67H15N21Ni4O14,0.034188034,6,6c_Ni_1_Ch,226,N#CC1:C:C(:C(C#N):C:C:1C1=C(C2:C:C(C#N):C(:C:C:2C#N)C2:C:C(C#N):C(:C:C:2C#N)C2:N:C(:N:C(:N:2)C(:O):O)C(:O):O)C2C(=C(C3:C:C(C#N):C(:C:C:3C#N)C3:C:C(C#N):C(:C:C:3C#N)C3:N:C(:N:C(:N:3)C(:O):O)C(:O):O)C1C(=C2C1:C:C(C#N):C(:C:C:1C#N)C1:C:C(C#N):C(:C:C:1C#N)C1:N:C(:N:C(:N:1)C(:O):O)C(:O):O)C1:C:C(C#N):C(:C:C:1C#N)C1:C:C(C#N):C(:C:C:1C#N)C1:N:C(:N:C(:N:1)C(:O):O)C(:O):O)C1:C:C(C#N):C(:C:C:1C#N)C1:C:C(C#N):C(:C:C:1C#N)C1:N:C(:N:C(:N:1)C(:O):O)C(:O):O)C1:C:C(C#N):C(:C:C:1C#N)C1:N:C(:N:C(:N:1)C(:O):O)C(:O):O,1
SR_cut_v1-8c_Mn_1_Ch_v2-3c_B_Ch_ntn_edge_1B_2furan_Ch_2x2x3,0.35538,0.84508,0.390468,3732.37,1457.37,20.94269,19.27372,72077.66788,,,,1356,,240,240,192,C52Cl1H20Mn4N32O4,0.036697248,8,8c_Mn_1_Ch,54,C1:C(:C:C(:C:C:1C1:N:N:N:N:1)C1:C:C2:C:C3:O:C(:C:C:3:C:C:2:O:1)C1:C:C(:C:C(:C:1)C1:N:N:N:N:1)C1:N:N:N:N:1)C1:N:N:N:N:1,1
SR_crsd_v1-8c_Mn_1_Ch_v2-4c_1anC_Ch_2TrU_Ch_1DoU_Ch_1x1x1,0.20901,0.74288,0.659671,3517.69,2320.52,9.94447,6.91041,21269.5058,,,,560,,160,160,128,C29Cl1H4Mn4N32,0.060606061,8,8c_Mn_1_Ch,"14,37",C(=CC1:N:N:N:N:1)C1:N:N:N:N:1___C(C#CC(C#CC#CC1:N:N:N:N:1)(C#CC#CC1:N:N:N:N:1)C#CC#CC1:N:N:N:N:1)#CC1:N:N:N:N:1,1
SR_cer_v1-3c_B_Ch_v2-6c_bicyclooctane_Ch_v3-6c_Zr_1_Ch_1TrU_Ch_ntn_edge_2x2x2,0.20631,0.57152,1.22395,908.562,1112.03,7.16368,4.2215,72483.93732,,,,3328,,1536,1536,384,C17H16O16Zr3,0.06122449,6,6c_Zr_1_Ch,112,O:C(:O)C1:C:C(C#CC2=C(C#CC3:C:C(:C:C(:C:3)C(:O):O)C(:O):O)C3C(C#CC4:C:C(:C:C(:C:4)C(:O):O)C(:O):O)=C(C#CC4:C:C(:C:C(:C:4)C(:O):O)C(:O):O)C2C(C#CC2:C:C(:C:C(:C:2)C(:O):O)C(:O):O)=C3C#CC2:C:C(:C:C(:C:2)C(:O):O)C(:O):O):C:C(:C:1)C(:O):O,1
SR_cev_v1-4c_ethene_Ch_v2-4c_Ni_1_Ch_v3-4c_Ni_1_Ch_ntn_edge_1B_2NH2_Ch_2x2x1,0.22677,0.65316,0.936354,1668.62,1562.42,11.35559,4.71655,52499.0166,,,,2112,,432,384,384,C9H6N2Ni1O4,0.047619048,4,4c_Ni_1_Ch,42,NC1:C:C(C(:O):O):C(N):C:C:1C(=C(C(:O):O)C(:O):O)C1:C:C(N):C(:C:C:1N)C(:O):O,1
SR_crsd_v1-8c_Mn_1_Ch_v2-4c_1anC_Ch_1B_2NH2_Ch_ntn_edge_1x1x1,0.25017,0.63152,0.928346,1670.94,1551.21,6.44916,4.00002,17688.29108,,,,816,,160,160,128,C33Cl1H24Mn4N40,0.040816327,8,8c_Mn_1_Ch,"10,77",N1:N:N:C(:N:1)C1:N:N:N:N:1___NC1:C:C(:C(N):C:C:1C1:N:N:N:N:1)C(C1:C:C(N):C(:C:C:1N)C1:N:N:N:N:1)(C1:C:C(N):C(:C:C:1N)C1:N:N:N:N:1)C1:C:C(N):C(:C:C:1N)C1:N:N:N:N:1,1
SR_cen_v1-12c_Mn_1_Ch_v2-4c_1anC_Ch_ntn_edge_1B_2Br_Ch_3x3x2,1.15726,0.11908,3.41857,0,0,2.15917,0.48334,15577.42929,,,,1278,,756,756,324,Br4C28H4Mn8O27,0.126984127,12,12c_Mn_1_Ch,"30,30",O:C(:O)C(C(:O):O)(C(:O):O)C1:C:C(Br):C(:C:C:1Br)C(C(:O):O)(C(:O):O)C(:O):O___OC(:O)C(C(O):O)(C(O):O)C1:C:C(Br):C(:C:C:1Br)C(C(O):O)(C(O):O)C(O):O,1
SR_ced_v1-3c_triazine_Ch_v2-12c_Mn_1_Ch_1DoU_Ch_ntn_edge_2x2x2,0.28157,0.63198,0.985902,1767.78,1742.86,7.08108,5.21348,28024.98749,,,,1048,,336,336,144,C54H24Mn8N18O27,0.06504065,12,12c_Mn_1_Ch,"40,40",OC(:O)C=CC1:N:C(C=CC(:O):O):N:C(:N:1)C1:N:C(C=CC(:O):O):N:C(C=CC(:O):O):N:1___OC(:O)C=CC1:N:C(C=CC(:O):O):N:C(:N:1)C1:N:C(C=CC(O):O):N:C(C=CC(:O):O):N:1,1
SR_byl_v1-4c_bicyclooctane_Ch_v2-4c_In_1_Ch_1DoU_Ch_ntn_edge_1B_4H_Ch_1x2x2,0.20258,0.76938,0.685881,3308.31,2269.11,10.65783,7.23186,62755.35071,,,,1792,,512,512,512,C13H6In1O8,0.037037037,4,4c_In_1_Ch,"6,288",O:C(:O)C(:O):O___O:C(:O)C=CC1=CC23C=C(C=CC(:O):O)C1C(=C2)C1:C:C:C(:C:C:1)C1=CC2(C=C(C=CC(:O):O)C1C(C=CC(:O):O)=C2)C1:C:C:C(:C:C:1)C12C=C(C=CC(:O):O)C(C(C=CC(:O):O)=C1)C(=C2)C1:C:C:C(:C:C:1)C1=CC2(C=C(C=CC(:O):O)C1C(C=CC(:O):O)=C2)C1:C:C:C(:C:C:1)C12C=C(C=CC(:O):O)C(C(C=CC(:O):O)=C1)C(=C2)C1:C:C:C(:C:C:1)C1=CC2(C=C(C=CC(:O):O)C1C(C=CC(:O):O)=C2)C1:C:C:C(:C:C:1)C12C=C(C=CC(:O):O)C(C(C=CC(:O):O)=C1)C(=C2)C1:C:C:C(:C:C:1)C1=CC2(C=C(C=CC(:O):O)C1C(C=CC(:O):O)=C2)C1:C:C:C3:C:C:1,1
SR_diaj_v1-6c_Cr_1_Ch_1TrU_Ch_1x1x1,0.2531,0.82376,0.521852,2413.83,1259.66,24.61326,19.85211,155213.1364,,,,2688,,1440,1440,1152,C12Cr3O13,0.12,6,6c_Cr_1_Ch,8,O:C(:O)C#CC(:O):O,1
SR_crs_v1-6c_CdZn_1_Ch_1B_2Br_Ch_1x1x1,0.04731,0.81678,0.769744,2147.53,1653.05,17.35979,12.39351,47782.39144,,,,848,,256,256,192,Br6C24Cd3H6O13Zn1,0.081632653,6,6c_CdZn_1_Ch,16,O:C(:O)C1:C:C(Br):C(:C:C:1Br)C(:O):O,1
SR_ced_v1-3c_triazine_Ch_v2-12c_Mn_1_Ch_1B_4Br_Ch_ntn_edge_2x2x2,0.1866,0.51608,1.96267,453.926,890.907,7.1414,4.54245,48312.41299,,,,1624,,336,336,144,Br48C102Mn8N18O27,0.041025641,12,12c_Mn_1_Ch,64,OC(:O)C1:C(Br):C(Br):C(C2:N:C(:N:C(:N:2)C2:C(Br):C(Br):C(C(:O):O):C(Br):C:2Br)C2:N:C(:N:C(:N:2)C2:C(Br):C(Br):C(C(:O):O):C(Br):C:2Br)C2:C(Br):C(Br):C(C(O):O):C(Br):C:2Br):C(Br):C:1Br,1
SR_dmb_v1-3c_B_Ch_v2-3c_Cu_imadazoline_Ch_2B_4Br_Ch_1x1x1,0.01477,0.95534,0.188479,3291.14,620.312,41.62904,37.71142,198340.9664,,,,744,,48,48,48,Br8C17Cu1H3N2,0.033333333,3,3c_Cu_imadazoline_Ch,"146,34",BrC1:C(Br):C(:C(Br):C(Br):C:1C1:C:N:N:C:1)C1:C(Br):C(Br):C(C2:C:C(:C:C(:C:2)C2:C(Br):C(Br):C(:C(Br):C:2Br)C2:C(Br):C(Br):C(C3:C:C(:C:C(:C:3)C3:C(Br):C(Br):C(:C(Br):C:3Br)C3:C(Br):C(Br):C(C4:C:N:N:C:4):C(Br):C:3Br)C3:C(Br):C(Br):C(:C(Br):C:3Br)C3:C(Br):C(Br):C(C4:C:N:N:C:4):C(Br):C:3Br):C(Br):C:2Br)C2:C(Br):C(Br):C(:C(Br):C:2Br)C2:C(Br):C(Br):C(C3:C:N:N:C:3):C(Br):C:2Br):C(Br):C:1Br___BrC1:C(Br):C(:C(Br):C(Br):C:1C1:C:N:N:C:1)C1:C(Br):C(Br):C(C2:C:N:N:C:2):C(Br):C:1Br,1
SR_ced_v1-3c_triazine_Ch_v2-12c_Mn_1_Ch_ntn_edge_2B_2OH_Ch_2x2x2,0.15677,0.77368,0.53786,3660.65,1968.92,14.54959,9.12772,116555.9129,,,,2968,,336,336,144,C174H96Mn8N18O75,0.022038567,12,12c_Mn_1_Ch,120,OC(:O)C1:C:C(O):C(:C:C:1O)C1:C:C(O):C(:C:C:1O)C1:N:C(:N:C(:N:1)C1:C:C(O):C(:C:C:1O)C1:C:C(O):C(:C:C:1O)C(:O):O)C1:N:C(:N:C(:N:1)C1:C:C(O):C(:C:C:1O)C1:C:C(O):C(:C:C:1O)C(:O):O)C1:C:C(O):C(:C:C:1O)C1:C:C(O):C(:C:C:1O)C(O):O,1
SR_buh_v1-4c_bicyclooctane_Ch_v2-12c_Zr_1_Ch_v3-12c_Zr_1_Ch_1B_4F_Ch_1x1x1,0.16455,0.62924,1.07221,1469,1575.07,9.72858,4.8944,40704.69614,,,,1680,,384,384,192,C54F24H8O16Zr3,0.029411765,12,12c_Zr_1_Ch,64,O:C(:O)C1:C(F):C(F):C(C2=CC3(C=C(C4:C(F):C(F):C(C(:O):O):C(F):C:4F)C2C(=C3)C2:C(F):C(F):C(C(:O):O):C(F):C:2F)C2:C(F):C(F):C(C(:O):O):C(F):C:2F):C(F):C:1F,1
SR_cev_v1-4c_ethene_Ch_v2-4c_Ni_1_Ch_v3-4c_Ni_1_Ch_1B_2Br_Ch_1x1x1,0.28273,0.70952,1.06394,1578.68,1679.63,14.40896,6.62532,27235.19244,,,,672,,108,96,96,Br4C15H4Ni1O4,0.037037037,4,4c_Ni_1_Ch,54,O:C(:O)C1:C:C(Br):C(:C:C:1Br)C(=C(C1:C:C(Br):C(:C:C:1Br)C(:O):O)C1:C:C(Br):C(:C:C:1Br)C(:O):O)C1:C:C(Br):C(:C:C:1Br)C(:O):O,1
SR_cut_v1-8c_Co_1_Ch_v2-3c_triazine_Ch_1B_2OH_Ch_ntn_edge_2x2x2,0.13817,0.76718,0.595188,2913.69,1734.19,12.69761,11.20099,39856.96937,,,,1192,,160,160,128,C68Co4H32N12O33,0.027586207,8,8c_Co_1_Ch,72,O:C(:O)C1:C:C(O):C(:C:C:1O)C1:N:C(:N:C(:N:1)C1:C:C(O):C(:C:C:1O)C(:O):O)C1:N:C(:N:C(:N:1)C1:C:C(O):C(:C:C:1O)C(:O):O)C1:C:C(O):C(:C:C:1O)C(:O):O,1
SR_cee_v1-3c_B_Ch_v2-6c_B_Ch_v3-4c_V_1_Ch_1B_2thiophene_Ch_1x1x2,0.11941,0.8995,0.239261,5767.55,1379.95,20.38104,17.77924,76009.87185,,,,780,,54,48,48,C39H15O4S6V1,0.015625,4,4c_V_1_Ch,384,O:C(:O)C1:C:C2:C:C3:S:C(:C:C:3:C:C:2:S:1)C1:C:C(:C:C(:C:1)C1:C:C2:C:C3:S:C(:C:C:3:C:C:2:S:1)C1:C(C2:C:C3:C:C4:S:C(:C:C:4:C:C:3:S:2)C2:C:C(:C:C(:C:2)C2:C:C3:C:C4:S:C(:C:C:4:C:C:3:S:2)C(:O):O)C2:C:C3:C:C4:S:C(:C:C:4:C:C:3:S:2)C(:O):O):C(C2:C:C3:C:C4:S:C(:C:C:4:C:C:3:S:2)C2:C:C(:C:C(:C:2)C2:C:C3:C:C4:S:C(:C:C:4:C:C:3:S:2)C(:O):O)C2:C:C3:C:C4:S:C(:C:C:4:C:C:3:S:2)C(:O):O):C(C2:C:C3:C:C4:S:C(:C:C:4:C:C:3:S:2)C2:C:C(:C:C(:C:2)C2:C:C3:C:C4:S:C(:C:C:4:C:C:3:S:2)C(:O):O)C2:C:C3:C:C4:S:C(:C:C:4:C:C:3:S:2)C(:O):O):C(C2:C:C3:C:C4:S:C(:C:C:4:C:C:3:S:2)C2:C:C(:C:C(:C:2)C2:C:C3:C:C4:S:C(:C:C:4:C:C:3:S:2)C(:O):O)C2:C:C3:C:C4:S:C(:C:C:4:C:C:3:S:2)C(:O):O):C:1C1:C:C2:C:C3:S:C(:C:C:3:C:C:2:S:1)C1:C:C(:C:C(:C:1)C1:C:C2:C:C3:S:C(:C:C:3:C:C:2:S:1)C(:O):O)C1:C:C2:C:C3:S:C(:C:C:3:C:C:2:S:1)C(:O):O)C1:C:C2:C:C3:S:C(:C:C:3:C:C:2:S:1)C(:O):O,1
SR_cev_v1-4c_ethene_Ch_v2-4c_ethene_Ch_v3-4c_Cu_1_Ch_1B_2F_Ch_1x1x1,0.39366,0.67124,0.850029,1952.13,1659.37,10.51435,5.11199,17264.79299,,,,600,,54,48,48,C29Cu1F8H8O4,0.020408163,4,4c_Cu_1_Ch,294,O:C(:O)C1:C:C(F):C(:C:C:1F)C(=C1C2:C:C(F):C(:C:C:2F)C2=C3C4:C:C(F):C(:C:C:4F)C(=C(C4:C:C(F):C(:C:C:4F)C(:O):O)C4:C:C(F):C(:C:C:4F)C(:O):O)C4:C:C(F):C(:C:C:4F)C4=C(C5:C:C(F):C(:C:C:5F)C(=C(C5:C:C(F):C(:C:C:5F)C(:O):O)C5:C:C(F):C(:C:C:5F)C(:O):O)C5:C:C(F):C2:C:C:5F)C2:C:C(F):C(:C:C:2F)C(=C(C2:C:C(F):C(:C:C:2F)C(:O):O)C2:C:C(F):C(:C:C:2F)C(:O):O)C2:C:C(F):C(:C:C:2F)C(=C(C2:C:C(F):C1:C:C:2F)C1:C:C(F):C(:C:C:1F)C(=C(C1:C:C(F):C(:C:C:1F)C(:O):O)C1:C:C(F):C(:C:C:1F)C(:O):O)C1:C:C(F):C4:C:C:1F)C1:C:C(F):C(:C:C:1F)C(=C(C1:C:C(F):C(:C:C:1F)C(:O):O)C1:C:C(F):C(:C:C:1F)C(:O):O)C1:C:C(F):C3:C:C:1F)C1:C:C(F):C(:C:C:1F)C(:O):O,1
SR_cet_v1-3c_B_Ch_v2-6c_Ni_1_Ch_v3-6c_bicyclooctane_Ch_1DoU_Ch_ntn_edge_3x3x1,0.54331,0.63484,0.885731,1481.01,1311.78,8.24314,5.93158,54410.61767,,,,2232,,324,324,216,C35H18Ni2O7,0.033333333,6,6c_Ni_1_Ch,,None,1
SR_ceh_v1-3c_triazine_Ch_v2-6c_Mg_1_Ch_v3-4c_bicyclooctane_Ch_1B_2CF3_Ch_1x1x4,0.27597,0.42682,1.47053,0,0,5.09031,3.5444,28278.05705,,,,1632,,120,120,48,C33F18H9Mg1N3O4,0.014925373,6,6c_Mg_1_Ch,,None,1