name,k,VF,density,ASA_grav,ASA_vol,LPD,PLD,volume,,,,N_atoms,,N_metal_containing_bonds,N_metal_nonmetal_bonds,N_metal_linker_bonds,formula,metal_nonmetal_ratio,metal_node_connectivity,metal_node_name,N_atoms_per_linker,linker_SMILES,N_ccs
SR_bcu_v1-8c_Mn_1_Ch_2B_2CH3_Ch_2x2x2,0.14737,0.80928,0.416684,5104.4,2126.92,12.68576,8.8071,104107.1108,,,,2768,,320,320,256,C72Cl1H64Mn4N32,0.023668639,8,8c_Mn_1_Ch,42,CC1:C:C(:C(C):C:C:1C1:N:N:N:N:1)C1:C:C(C):C(:C:C:1C)C1:N:N:N:N:1,1
SR_bcu_v1-8c_Zr_1_Ch_1B_4F_Ch_2x2x2,0.32188,0.62234,1.18912,1345.48,1599.94,7.7006,4.76985,39408.41287,,,,1632,,768,768,256,C16F8H8O16Zr3,0.0625,8,8c_Zr_1_Ch,16,O:C(:O)C1:C(F):C(F):C(C(:O):O):C(F):C:1F,1
SR_bcx_v1-4c_1anC_Ch_v2-4c_Cd_1_Ch_2B_2CH3_Ch_1x1x1,0.0502,0.902,0.209162,6135.68,1283.35,27.83062,15.46522,161576.2116,,,,2368,,192,192,192,C141Cd3H128O24,0.010238908,4,4c_Cd_1_Ch,"38,244",CC1:C:C(:C(C):C:C:1C(:O):O)C1:C:C(C):C(:C:C:1C)C(:O):O___CC1:C:C(:C(C):C:C:1C(:O):O)C1:C:C(C):C(:C:C:1C)C(C1:C:C(C):C(:C:C:1C)C1:C:C(C):C(:C:C:1C)C(:O):O)(C1:C:C(C):C(:C:C:1C)C1:C:C(C):C(:C:C:1C)C(:O):O)C1:C:C(C):C(:C:C:1C)C1:C:C(C):C(:C:C:1C)C(C1:C:C(C):C(:C:C:1C)C1:C:C(C):C(:C:C:1C)C(:O):O)(C1:C:C(C):C(:C:C:1C)C1:C:C(C):C(:C:C:1C)C(:O):O)C1:C:C(C):C(:C:C:1C)C1:C:C(C):C(:C:C:1C)C(:O):O,1
SR_bcu_v1-8c_Co_1_Ch_1B_4H_Ch_2x2x2,0.39007,0.61068,1.07018,1312.23,1404.32,7.77339,5.82991,22552.64018,,,,1104,,320,320,256,C32Co4H16O17,0.061538462,8,8c_Co_1_Ch,16,O:C(:O)C1:C:C:C(:C:C:1)C(:O):O,1
SR_bcu_v1-8c_Co_2_Ch_1B_2thiophene_Ch_2x1x2,0.25557,0.82878,0.440413,4260.57,1876.41,16.21709,11.15859,47075.51206,,,,936,,160,160,128,C56Cl1Co4H24N24S8,0.03539823,8,8c_Co_2_Ch,28,C1:N:N:N:C1C1:C:C2:C:C3:S:C(:C:C:3:C:C:2:S:1)C1C:N:N:N:1,1
SR_bcu_v1-8c_Zr_1_Ch_3B_fused_8H_Ch_2x2x2,0.20153,0.77444,0.603528,3344.11,2018.26,12.12446,9.23828,82603.36037,,,,2400,,768,768,256,C32H24O16Zr3,0.041666667,8,8c_Zr_1_Ch,28,O:C(:O)C1:C:C:C2:C(:C:C:C3:C:C(:C:C:C:3:2)C(:O):O):C:1,1
SR_bcuk_v1-6c_Cr_1_Ch_1B_2SH_Ch_1x1x1,0.13967,0.7145,0.762276,2153.12,1641.27,20.83593,8.56738,89583.7768,,,,2784,,720,720,576,C24Cr3H12O13S6,0.054545455,6,6c_Cr_1_Ch,18,O:C(:O)C1:C:C(S):C(:C:C:1S)C(:O):O,1
SR_bcu_v1-8c_Zr_1_Ch_2B_2CN_Ch_2x2x2,0.12658,0.7316,0.696334,3008.45,2094.88,11.38941,8.39731,83196.49896,,,,2528,,768,768,256,C36H16N8O16Zr3,0.039473684,8,8c_Zr_1_Ch,30,N#CC1:C:C(:C(C#N):C:C:1C(:O):O)C1:C:C(C#N):C(:C:C:1C#N)C(:O):O,1
SR_bcuk_v1-6c_Fe_1_Ch_2B_4F_Ch_1x1x1,0.11521,0.84832,0.436014,3563.77,1553.85,31.63119,15.29908,244219.5771,,,,3936,,720,720,576,C42F24Fe3O13,0.037974684,6,6c_Fe_1_Ch,26,O:C(:O)C1:C(F):C(F):C(:C(F):C:1F)C1:C(F):C(F):C(C(:O):O):C(F):C:1F,1
SR_bcuf_v1-3c_Cu_imadazoline_Ch_2B_4F_Ch_1x1x1,0.02905,0.97286,0.0823674,5712.58,470.53,51.04566,35.67904,268695.0755,,,,864,,96,96,96,C9Cu1F4H2N2,0.058823529,3,3c_Cu_imadazoline_Ch,34,FC1:C(F):C(:C(F):C(F):C:1C1:C:N:N:C:1)C1:C(F):C(F):C(C2:C:N:N:C:2):C(F):C:1F,1
SR_bix_v1-4c_bicyclooctane_Ch_v2-6c_CdZn_1_Ch_v3-6c_CdZn_1_Ch_1B_4F_Ch_1x1x1,0.10515,0.78524,0.697996,2854.49,1992.42,14.27615,9.61533,131032.6678,,,,3232,,512,512,384,C54Cd3F24H6O13Zn1,0.041237113,6,6c_CdZn_1_Ch,64,O:C(:O)C1:C(F):C(F):C(C2=CC3(C=C(C4:C(F):C(F):C(C(:O):O):C(F):C:4F)C2C(=C3)C2:C(F):C(F):C(C(:O):O):C(F):C:2F)C2:C(F):C(F):C(C(:O):O):C(F):C:2F):C(F):C:1F,1
SR_bcuk_v1-6c_Cr_1_Ch_2B_fused_Ch_1x1x1,0.27243,0.82508,0.430341,3903.42,1679.8,27.17884,12.64562,150864.3321,,,,3360,,720,720,576,C36Cr3H18O13,0.044776119,6,6c_Cr_1_Ch,22,O:C(:O)C1:C:C:C2:C:C(:C:C:C:2:C:1)C(:O):O,1
SR_bcs_v1-6c_Mg_1_Ch_ntn_edge_1x1x1,0.78716,0.6698,0.821564,2885.02,2370.23,6.46757,4.96484,21990.16548,,,,768,,480,480,192,C2H1Mg1O4,0.142857143,6,6c_Mg_1_Ch,6,O:C(:O)C(:O):O,1
SR_bcu_v1-8c_Co_1_Ch_2B_2CH3_Ch_2x2x2,0.14939,0.70796,0.648537,3359.49,2178.75,8.97158,6.07848,58921.65803,,,,2512,,320,320,256,C72Co4H64O17,0.026143791,8,8c_Co_1_Ch,38,CC1:C:C(:C(C):C:C:1C(:O):O)C1:C:C(C):C(:C:C:1C)C(:O):O,1
SR_bix_v1-4c_1anC_Ch_v2-6c_CdZn_1_Ch_v3-6c_CdZn_1_Ch_1TrU_Ch_1x1x1,0.13485,0.75014,0.96192,2233.1,2148.06,10.70614,7.43613,46668.79522,,,,1168,,512,512,384,C39Cd6O26Zn2,0.123076923,6,6c_CdZn_1_Ch,21,O:C(:O)C#CC(C#CC(:O):O)(C#CC(:O):O)C#CC(:O):O,1
SR_bcs_v1-6c_Zr_1_Ch_1B_2CH3_Ch_1x1x1,0.15437,0.6765,0.904347,2290.42,2071.33,8.77119,6.2868,43074.64405,,,,1824,,768,768,192,C15H23O16Zr3,0.055555556,6,6c_Zr_1_Ch,22,CC1:C:C(C(:O):O):C(C):C:C:1C(:O):O,1
SR_bcu_v1-8c_Co_1_Ch_2B_2CF3_Ch_2x2x2,0.12931,0.64084,1.02276,1704.52,1743.31,7.97293,5.30154,59805.7897,,,,2512,,320,320,256,C72Co4F48H16O17,0.026143791,8,8c_Co_1_Ch,38,O:C(:O)C1:C:C(:C(:C:C:1C(F)(F)F)C1:C:C(:C(:C:C:1C(F)(F)F)C(:O):O)C(F)(F)F)C(F)(F)F,1
SR_bcu_v1-8c_Co_1_Ch_2B_2CN_Ch_2x2x2,0.16187,0.70172,0.720509,2893.58,2084.85,8.59886,5.72265,59488.6788,,,,2000,,320,320,256,C72Co4H16N16O17,0.033057851,8,8c_Co_1_Ch,30,N#CC1:C:C(:C(C#N):C:C:1C(:O):O)C1:C:C(C#N):C(:C:C:1C#N)C(:O):O,1
SR_bcs_v1-6c_Zr_1_Ch_1B_2SH_Ch_1x1x1,0.12043,0.6698,0.968339,2099.08,2032.63,9.3452,5.71775,43203.26763,,,,1632,,768,768,192,C12H17O16S3Zr3,0.0625,6,6c_Zr_1_Ch,18,O:C(:O)C1:C:C(S):C(:C:C:1S)C(:O):O,1
SR_bcu_v1-8c_Zr_1_Ch_1B_2TrU_Ch_1x1x2,0.21071,0.8344,0.45541,4401.12,2004.31,15.47651,10.54179,24329.19686,,,,472,,192,192,64,C24H16O16Zr3,0.053571429,8,8c_Zr_1_Ch,20,O:C(:O)C#CC1:C:C:C(C#CC(:O):O):C:C:1,1
SR_bcu_v1-8c_Mn_1_Ch_1B_4CN_Ch_2x2x2,0.7077,0.66638,0.839333,2200.74,1847.15,8.86849,4.50244,47612.67658,,,,1616,,320,320,256,C48Cl1Mn4N48,0.041237113,8,8c_Mn_1_Ch,24,N#CC1:C(C#N):C(C2:N:N:N:N:2):C(C#N):C(C#N):C:1C1:N:N:N:N:1,1
SR_bcu_v1-8c_Co_2_Ch_1B_4Br_Ch_2x2x2,0.84154,0.64874,1.33298,1325.47,1766.82,7.74253,5.35937,47324.54916,,,,1488,,320,320,256,Br16C40Cl1Co4H8N24,0.04494382,8,8c_Co_2_Ch,22,BrC1:C(Br):C(C2C:N:N:N:2):C(Br):C(Br):C:1C1C:N:N:N:1,1
SR_bcu_v1-8c_Mn_1_Ch_1B_2CF3_Ch_2x2x2,0.20423,0.70378,0.836775,2325.18,1945.65,9.64552,6.79058,52323.03898,,,,1744,,320,320,256,C40Cl1F24H8Mn4N32,0.038095238,8,8c_Mn_1_Ch,26,FC(F)(F)C1:C:C(C2:N:N:N:N:2):C(:C:C:1C1:N:N:N:N:1)C(F)(F)F,1
SR_bcu_v1-8c_Co_2_Ch_4B_fused_8H_Ch_2x1x2,0.59083,0.8129,0.441345,4253.35,1877.19,15.84685,10.72302,48417.23372,,,,1192,,160,160,128,C80Cl1Co4H40N24,0.027586207,8,8c_Co_2_Ch,36,C1:N:N:N:C1C1:C:C2:C:C:C3:C:C(:C:C4:C:C:C(:C:1):C:2:C:3:4)C1C:N:N:N:1,1
SR_bcz_v1-4c_1anC_Ch_v2-4c_In_1_Ch_1DoU_Ch_1x1x1,0.12502,0.79136,0.623157,3577.03,2229.05,12.63909,7.73684,23987.1354,,,,612,,192,192,192,C21H12In2O16,0.040816327,4,4c_In_1_Ch,"10,57",O:C(:O)C=CC(:O):O___O:C(:O)C=CC1(C=CC(:O):O)C=CC(C=CC(:O):O)(C=CC(:O):O)C=CC(C=CC(:O):O)(C=CC(:O):O)C=C1,1
SR_bcu_v1-8c_Mn_1_Ch_1B_2CN_Ch_2x2x2,0.57964,0.71356,0.731644,2528.55,1850,11.10429,6.68661,47352.94439,,,,1488,,320,320,256,C40Cl1H8Mn4N40,0.04494382,8,8c_Mn_1_Ch,22,N#CC1:C:C(C2:N:N:N:N:2):C(C#N):C:C:1C1:N:N:N:N:1,1
SR_bcuk_v1-6c_Fe_1_Ch_1B_2NH2_Ch_1x1x1,0.14935,0.75598,0.627696,2549.31,1600.19,21.15166,9.29425,97265.45309,,,,3072,,720,720,576,C24Fe3H18N6O13,0.049180328,6,6c_Fe_1_Ch,20,NC1:C:C(C(:O):O):C(N):C:C:1C(:O):O,1
SR_bcu_v1-8c_Mn_1_Ch_2B_1DoU_Ch_1x1x1,0.35592,0.8767,0.286781,5582.75,1601.03,19.0968,14.2336,17515.45437,,,,282,,40,40,32,C64Cl1H40Mn4N32,0.02919708,8,8c_Mn_1_Ch,34,C(=CC1:C:C:C(:C:C:1)C1:N:N:N:N:1)C1:C:C:C(:C:C:1)C1:N:N:N:N:1,1
SR_bcu_v1-8c_Mn_1_Ch_1B_2furan_Ch_2x2x2,0.37945,0.83782,0.423445,4629.83,1960.48,16.17384,11.34889,89352.31832,,,,1744,,320,320,256,C48Cl1H16Mn4N32O8,0.038095238,8,8c_Mn_1_Ch,26,C1:C(:O:C2:C:C3:C:C(:O:C:3:C:C:1:2)C1:N:N:N:N:1)C1:N:N:N:N:1,1
SR_bcs_v1-6c_Ni_1_Ch_1B_2CN_Ch_1x1x1,0.2131,0.64402,0.991371,1689.6,1675.02,7.8678,4.66127,24472.337,,,,992,,288,288,192,C15H4N3Ni2O7,0.068965517,6,6c_Ni_1_Ch,18,N#CC1:C:C(C(:O):O):C(C#N):C:C:1C(:O):O,1
SR_bcu_v1-8c_Co_1_Ch_1B_2NH2_Ch_2x2x2,0.30843,0.58798,1.11268,1007.99,1121.57,6.2912,3.82956,24570.66339,,,,1360,,320,320,256,C32Co4H24N8O17,0.049382716,8,8c_Co_1_Ch,20,NC1:C:C(C(:O):O):C(N):C:C:1C(:O):O,1
SR_bix_v1-4c_bicyclooctane_Ch_v2-6c_CdZn_1_Ch_v3-6c_CdZn_1_Ch_2B_2F_Ch_1x1x1,0.07011,0.88192,0.3263,4633.67,1511.97,22.30113,16.22209,354650.4405,,,,5152,,512,512,384,C90Cd3F24H30O13Zn1,0.025477707,6,6c_CdZn_1_Ch,104,O:C(:O)C1:C:C(F):C(:C:C:1F)C1:C:C(F):C(:C:C:1F)C1=CC2(C=C(C3:C:C(F):C(:C:C:3F)C3:C:C(F):C(:C:C:3F)C(:O):O)C1C(=C2)C1:C:C(F):C(:C:C:1F)C1:C:C(F):C(:C:C:1F)C(:O):O)C1:C:C(F):C(:C:C:1F)C1:C:C(F):C(:C:C:1F)C(:O):O,1
SR_bcuk_v1-6c_Cr_1_Ch_1B_2indole_Ch_1x1x1,0.29279,0.86126,0.351812,4448.47,1565.03,31.86673,14.65953,203575.6086,,,,3648,,720,720,576,C36Cr3H18N6O13,0.04109589,6,6c_Cr_1_Ch,24,O:C(:O)C1:C:C2:C:C3:[NH]:C(:C:C:3:C:C:2:[NH]:1)C(:O):O,1
SR_bix_v1-4c_bicyclooctane_Ch_v2-6c_CdZn_1_Ch_v3-6c_CdZn_1_Ch_1B_2indole_Ch_1x1x1,0.10584,0.8891,0.301271,5021.21,1512.74,22.12854,15.70838,310052.2567,,,,4768,,512,512,384,C78Cd3H42N12O13Zn1,0.027586207,6,6c_CdZn_1_Ch,96,O:C(:O)C1:C:C2:C:C3:[NH]:C(:C:C:3:C:C:2:[NH]:1)C1=CC2(C=C(C3:C:C4:C:C5:[NH]:C(:C:C:5:C:C:4:[NH]:3)C(:O):O)C1C(=C2)C1:C:C2:C:C3:[NH]:C(:C:C:3:C:C:2:[NH]:1)C(:O):O)C1:C:C2:C:C3:[NH]:C(:C:C:3:C:C:2:[NH]:1)C(:O):O,1
SR_bcuk_v1-6c_Al_1_Ch_1TrU_Ch_1x1x1,0.41419,0.75996,0.629416,2949.9,1856.71,19.65429,8.88982,54841.05402,,,,1344,,720,720,576,Al3C12O13,0.12,6,6c_Al_1_Ch,8,O:C(:O)C#CC(:O):O,1
SR_bcuk_v1-6c_Cr_1_Ch_1B_2DoU_Ch_1x1x1,0.20967,0.88798,0.262394,5430.78,1425.01,34.40942,17.01537,249260.3419,,,,3648,,720,720,576,C36Cr3H24O13,0.04109589,6,6c_Cr_1_Ch,24,O:C(:O)C=CC1:C:C:C(C=CC(:O):O):C:C:1,1
SR_bcs_v1-6c_Ni_1_Ch_1B_2Br_Ch_1x1x1,0.19895,0.64022,1.35498,1204.42,1631.97,6.86998,4.33271,24277.91021,,,,896,,288,288,192,Br3C12H4Ni2O7,0.076923077,6,6c_Ni_1_Ch,16,O:C(:O)C1:C:C(Br):C(:C:C:1Br)C(:O):O,1
SR_bcu_v1-8c_Zr_1_Ch_2B_2NH2_Ch_2x2x2,0.15351,0.75316,0.644808,3156.47,2035.32,13.08963,9.1069,83255.08654,,,,2784,,768,768,256,C28H32N8O16Zr3,0.035714286,8,8c_Zr_1_Ch,34,NC1:C:C(:C(N):C:C:1C(:O):O)C1:C:C(N):C(:C:C:1N)C(:O):O,1
SR_bix_v1-4c_1anC_Ch_v2-6c_Zn_1_Ch_v3-6c_Zn_1_Ch_3B_fused_8H_Ch_1x1x1,0.1089,0.86242,0.327241,5116.23,1674.24,19.88574,14.10153,262558.5929,,,,5008,,512,512,384,C183H96O26Zn8,0.026229508,6,6c_Zn_1_Ch,101,O:C(:O)C1:C:C:C2:C(:C:C:C3:C:C(:C:C:C:3:2)C(C2:C:C:C3:C(:C:C:C4:C:C(:C:C:C:4:3)C(:O):O):C:2)(C2:C:C:C3:C(:C:C:C4:C:C(:C:C:C:4:3)C(:O):O):C:2)C2:C:C:C3:C(:C:C:C4:C:C(:C:C:C:4:3)C(:O):O):C:2):C:1,1
SR_bix_v1-4c_bicyclooctane_Ch_v2-6c_Ni_1_Ch_v3-6c_bicyclooctane_Ch_2B_fused_Ch_ntn_edge_1x1x1,0.29118,0.7111,0.605353,3311.58,2004.67,13.25753,6.07547,81191.02588,,,,3328,,144,144,96,C129H70Ni2O7,0.009708738,6,6c_Ni_1_Ch,,None,1
SR_bcuk_v1-6c_Fe_1_Ch_2TrU_Ch_1x1x1,0.32826,0.85908,0.384284,4554.96,1750.4,27.69872,13.06556,122731.1598,,,,1632,,720,720,576,C18Fe3O13,0.096774194,6,6c_Fe_1_Ch,10,O:C(:O)C#CC#CC(:O):O,1
SR_bcu_v1-8c_Co_1_Ch_2B_4Br_Ch_2x2x2,0.1384,0.62156,1.64569,950.862,1564.83,7.59008,5.50401,60352.28067,,,,1744,,320,320,256,Br32C56Co4O17,0.038095238,8,8c_Co_1_Ch,26,O:C(:O)C1:C(Br):C(Br):C(:C(Br):C:1Br)C1:C(Br):C(Br):C(C(:O):O):C(Br):C:1Br,1
SR_bcs_v1-6c_Mg_1_Ch_1B_2NH2_Ch_1x1x1,0.19844,0.78982,0.482968,4181.54,2019.55,11.63234,8.82536,54921.47893,,,,1440,,480,480,192,C5H4Mg1N1O4,0.071428571,6,6c_Mg_1_Ch,20,NC1:C:C(C(:O):O):C(N):C:C:1C(:O):O,1
SR_bcu_v1-8c_Zr_1_Ch_2B_2SH_Ch_2x2x2,0.12566,0.72944,0.732855,2711.41,1987.07,12.8469,8.33717,83143.09947,,,,2528,,768,768,256,C28H24O16S8Zr3,0.039473684,8,8c_Zr_1_Ch,30,O:C(:O)C1:C:C(S):C(:C:C:1S)C1:C:C(S):C(:C:C:1S)C(:O):O,1
SR_bcu_v1-8c_Mn_1_Ch_4B_fused_8H_Ch_2x2x2,1.05511,0.81668,0.44129,4254.94,1877.66,16.26114,10.70391,96359.62236,,,,2256,,320,320,256,C72Cl1H32Mn4N32,0.02919708,8,8c_Mn_1_Ch,34,C1:C:C2:C:C(:C:C3:C:C:C4:C:C(:C:C:1:C:4:C:2:3)C1:N:N:N:N:1)C1:N:N:N:N:1,1
SR_bcu_v1-8c_Zr_1_Ch_1DoU_Ch_2x2x3,0.76482,0.61446,1.21843,1221.19,1487.93,7.23617,4.25476,41725.56152,,,,1872,,1152,1152,384,C8H12O16Zr3,0.083333333,8,8c_Zr_1_Ch,10,O:C(:O)C=CC(:O):O,1
SR_bcu_v1-8c_Mn_1_Ch_2TrU_Ch_2x2x2,1.33689,0.82732,0.464739,4526.86,2103.81,13.5145,8.58937,56694.04746,,,,976,,320,320,256,C24Cl1Mn4N32,0.070175439,8,8c_Mn_1_Ch,14,C(C#CC1:N:N:N:N:1)#CC1:N:N:N:N:1,1
SR_bik_v1-4c_In_1_Ch_v2-4c_1anC_Ch_ntn_edge_1B_2CN_Ch_2x1x2,0.22952,0.684,0.893958,2216.6,1981.55,9.52956,6.81827,28921.36501,,,,1008,,256,256,256,C33H6In2N6O16,0.032786885,4,4c_In_1_Ch,"172,6",N#CC1:C:C(:C(C#N):C:C:1C(:O):O)C1(C2:C:C(C#N):C(:C:C:2C#N)C(:O):O)C2:C:C(C#N):C(:C:C:2C#N)C(C2:C:C(C#N):C(:C:C:2C#N)C(:O):O)(C2:C:C(C#N):C(:C:C:2C#N)C(:O):O)C2:C:C(C#N):C(:C:C:2C#N)C(C2:C:C(C#N):C(:C:C:2C#N)C(:O):O)(C2:C:C(C#N):C(:C:C:2C#N)C(:O):O)C2:C:C(C#N):C(:C:C:2C#N)C(C2:C:C(C#N):C(:C:C:2C#N)C(:O):O)(C2:C:C(C#N):C(:C:C:2C#N)C(:O):O)C2:C:C(C#N):C1:C:C:2C#N___O:C(:O)C(:O):O,1
SR_bcu_v1-8c_Mn_1_Ch_1B_2indole_Ch_2x2x2,1.37128,0.83406,0.421501,4637.58,1954.75,16.16941,11.09609,89268.27066,,,,1872,,320,320,256,C48Cl1H24Mn4N40,0.03539823,8,8c_Mn_1_Ch,28,C1:C(:[NH]:C2:C:C3:C:C(:[NH]:C:3:C:C:1:2)C1:N:N:N:N:1)C1:N:N:N:N:1,1
SR_bcz_v1-4c_bicyclooctane_Ch_v2-4c_Cd_1_Ch_2B_2CH3_Ch_ntn_edge_1x1x1,0.06265,0.8538,0.322799,5470,1765.71,18.93612,15.13631,93231.76195,,,,1992,,192,192,192,C40Cd1H34O8,0.012195122,4,4c_Cd_1_Ch,"38,150",CC1:C:C(:C(C):C:C:1C(:O):O)C1:C:C(C):C(:C:C:1C)C(:O):O___CC1:C:C2:C(C):C:C:1C1=CC3(C=C(C(:O):O)C1C(=C3)C1:C:C(C):C(:C:C:1C)C1:C:C(C):C(:C:C:1C)C1=CC3(C=C(C(:O):O)C1C(=C3)C1:C:C(C):C(:C:C:1C)C1:C:C(C):C(:C:C:1C)C1=CC3(C=C(C(:O):O)C1C(=C3)C1:C:C(C):C2:C:C:1C)C(:O):O)C(:O):O)C(:O):O,1
SR_bix_v1-4c_bicyclooctane_Ch_v2-6c_CdZn_1_Ch_v3-6c_CdZn_1_Ch_2B_fused_Ch_1x1x1,0.11884,0.85846,0.373947,4696.59,1756.27,19.11748,13.48976,225915.2459,,,,4384,,512,512,384,C78Cd3H42O13Zn1,0.030075188,6,6c_CdZn_1_Ch,88,O:C(:O)C1:C:C:C2:C:C(:C:C:C:2:C:1)C1=CC2(C=C(C3:C:C:C4:C:C(:C:C:C:4:C:3)C(:O):O)C1C(=C2)C1:C:C:C2:C:C(:C:C:C:2:C:1)C(:O):O)C1:C:C:C2:C:C(:C:C:C:2:C:1)C(:O):O,1
SR_bcu_v1-8c_Zr_1_Ch_2B_2OH_Ch_2x2x2,0.14186,0.76024,0.654858,3148.53,2061.84,12.03757,9.0974,82616.03949,,,,2528,,768,768,256,C28H24O24Zr3,0.039473684,8,8c_Zr_1_Ch,30,O:C(:O)C1:C:C(O):C(:C:C:1O)C1:C:C(O):C(:C:C:1O)C(:O):O,1
SR_bix_v1-4c_bicyclooctane_Ch_v2-6c_CdZn_1_Ch_v3-6c_CdZn_1_Ch_1B_2CH3_Ch_ntn_edge_1x1x1,0.12847,0.69032,0.847506,2142.93,1816.14,13.2034,5.69927,81605.47845,,,,3616,,512,512,384,C54Cd3H42O13Zn1,0.036697248,6,6c_CdZn_1_Ch,72,CC1:C:C(C(:O):O):C(C):C:C:1C1=CC2(C=C(C(:O):O)C1C(=C2)C1:C:C(C):C(:C:C:1C)C(:O):O)C1:C:C(C):C(:C:C:1C)C(:O):O,1
SR_bix_v1-4c_bicyclooctane_Ch_v2-6c_CdZn_1_Ch_v3-6c_CdZn_1_Ch_1B_2OH_Ch_ntn_edge_1x1x1,0.11828,0.71366,0.860935,2255.86,1942.15,13.14406,6.18611,81428.29355,,,,3040,,512,512,384,C45Cd3H24O22Zn1,0.043956044,6,6c_CdZn_1_Ch,60,O:C(:O)C1=CC2(C=C(C3:C:C(O):C(:C:C:3O)C(:O):O)C1C(=C2)C1:C:C(O):C(:C:C:1O)C(:O):O)C1:C:C(O):C(:C:C:1O)C(:O):O,1
SR_bcs_v1-6c_Mg_1_Ch_1B_2F_Ch_1x1x1,0.50052,0.7965,0.492386,3936.94,1938.49,11.72796,9.16819,54834.32831,,,,1248,,480,480,192,C5F1H2Mg1O4,0.083333333,6,6c_Mg_1_Ch,16,O:C(:O)C1:C:C(F):C(:C:C:1F)C(:O):O,1
SR_bix_v1-4c_bicyclooctane_Ch_v2-6c_CdZn_1_Ch_v3-6c_CdZn_1_Ch_2B_4Br_Ch_1x1x1,0.03225,0.81538,0.82276,1989.97,1637.27,20.19052,13.65124,357348.786,,,,5152,,512,512,384,Br48C90Cd3H6O13Zn1,0.025477707,6,6c_CdZn_1_Ch,104,O:C(:O)C1:C(Br):C(Br):C(:C(Br):C:1Br)C1:C(Br):C(Br):C(C2=CC3(C=C(C4:C(Br):C(Br):C(:C(Br):C:4Br)C4:C(Br):C(Br):C(C(:O):O):C(Br):C:4Br)C2C(=C3)C2:C(Br):C(Br):C(:C(Br):C:2Br)C2:C(Br):C(Br):C(C(:O):O):C(Br):C:2Br)C2:C(Br):C(Br):C(:C(Br):C:2Br)C2:C(Br):C(Br):C(C(:O):O):C(Br):C:2Br):C(Br):C:1Br,1
SR_bcu_v1-8c_Zr_1_Ch_2B_1TrU_Ch_1x1x2,0.18301,0.8439,0.413575,4212.7,1742.27,16.05609,12.03915,30135.60599,,,,600,,192,192,64,C32H24O16Zr3,0.041666667,8,8c_Zr_1_Ch,28,O:C(:O)C1:C:C:C(C#CC2:C:C:C(:C:C:2)C(:O):O):C:C:1,1
SR_bik_v1-4c_Cd_1_Ch_v2-4c_1anC_Ch_1TrU_Ch_ntn_edge_2x1x3,1.18517,0.69742,0.986461,1692.97,1670.05,8.31348,7.90405,26703.17102,,,,792,,384,384,384,C15Cd2O16,0.064516129,4,4c_Cd_1_Ch,"78,6",O:C(:O)C#CC1(C#CC(:O):O)C#CC(C#CC(:O):O)(C#CC(:O):O)C#CC(C#CC(:O):O)(C#CC(:O):O)C#CC(C#CC(:O):O)(C#CC(:O):O)C#CC(C#CC(:O):O)(C#CC(:O):O)C#CC(C#CC(:O):O)(C#CC(:O):O)C#C1___O:C(:O)C(:O):O,1
SR_bcu_v1-8c_Mn_1_Ch_1B_4H_Ch_2x2x2,1.84926,0.76304,0.613268,3469.16,2127.52,12.64887,7.57987,47824.67101,,,,1360,,320,320,256,C32Cl1H16Mn4N32,0.049382716,8,8c_Mn_1_Ch,20,C1:C:C(:C:C:C:1C1:N:N:N:N:1)C1:N:N:N:N:1,1
SR_bik_v1-4c_Cd_1_Ch_v2-4c_1anC_Ch_1B_4F_Ch_1x1x2,0.17128,0.73444,0.799282,2841.42,2271.09,9.60833,8.82314,24593.60266,,,,696,,128,128,128,C45Cd2F24O16,0.023529412,4,4c_Cd_1_Ch,"148,16",O:C(:O)C1:C(F):C(F):C(:C(F):C:1F)C1(C2:C(F):C(F):C(C(:O):O):C(F):C:2F)C2:C(F):C(F):C(:C(F):C:2F)C(C2:C(F):C(F):C(C(:O):O):C(F):C:2F)(C2:C(F):C(F):C(C(:O):O):C(F):C:2F)C2:C(F):C(F):C(:C(F):C:2F)C(C2:C(F):C(F):C(C(:O):O):C(F):C:2F)(C2:C(F):C(F):C(C(:O):O):C(F):C:2F)C2:C(F):C(F):C(:C(F):C:2F)C(C2:C(F):C(F):C(C(:O):O):C(F):C:2F)(C2:C(F):C(F):C(C(:O):O):C(F):C:2F)C2:C(F):C(F):C1:C(F):C:2F___O:C(:O)C1:C(F):C(F):C(C(:O):O):C(F):C:1F,1
SR_bik_v1-4c_In_1_Ch_v2-4c_In_1_Ch_1B_2CH3_Ch_1x1x2,0.07251,0.8585,0.365028,4851.25,1770.84,18.88781,15.80954,54496.97128,,,,1080,,192,192,192,C20H16In1O8,0.022727273,4,4c_In_1_Ch,22,CC1:C:C(C(:O):O):C(C):C:C:1C(:O):O,1
SR_bcu_v1-8c_Zr_1_Ch_2B_4F_Ch_2x2x2,0.13014,0.75146,0.751775,2660.26,1999.92,12.40772,9.32715,83263.65003,,,,2272,,768,768,256,C28F16H8O16Zr3,0.044117647,8,8c_Zr_1_Ch,26,O:C(:O)C1:C(F):C(F):C(:C(F):C:1F)C1:C(F):C(F):C(C(:O):O):C(F):C:1F,1
SR_bix_v1-4c_bicyclooctane_Ch_v2-6c_CdZn_1_Ch_v3-6c_CdZn_1_Ch_1B_2F_Ch_1x1x1,0.11398,0.80072,0.612652,3297.78,2020.39,14.14112,9.97628,130561.5942,,,,3232,,512,512,384,C54Cd3F12H18O13Zn1,0.041237113,6,6c_CdZn_1_Ch,64,O:C(:O)C1:C:C(F):C(:C:C:1F)C1=CC2(C=C(C3:C:C(F):C(:C:C:3F)C(:O):O)C1C(=C2)C1:C:C(F):C(:C:C:1F)C(:O):O)C1:C:C(F):C(:C:C:1F)C(:O):O,1
SR_bix_v1-4c_bicyclooctane_Ch_v2-6c_CdZn_1_Ch_v3-6c_CdZn_1_Ch_1TrU_Ch_1x1x1,0.11457,0.80488,0.666525,3241.8,2160.74,13.76729,9.11164,77888.23948,,,,1696,,512,512,384,C30Cd3H6O13Zn1,0.081632653,6,6c_CdZn_1_Ch,32,O:C(:O)C#CC1=CC2(C#CC(:O):O)C=C(C#CC(:O):O)C1C(C#CC(:O):O)=C2,1
SR_bcx_v1-4c_1anC_Ch_v2-4c_In_1_Ch_2B_2F_Ch_1x1x1,0.04912,0.91082,0.235114,5162.87,1213.86,27.76497,15.98658,151316.2921,,,,1600,,192,192,192,C109F32H32In3O24,0.015228426,4,4c_In_1_Ch,"26,160",O:C(:O)C1:C:C(F):C(:C:C:1F)C1:C:C(F):C(:C:C:1F)C(:O):O___O:C(:O)C1:C:C(F):C(:C:C:1F)C1:C:C(F):C(:C:C:1F)C(C1:C:C(F):C(:C:C:1F)C1:C:C(F):C(:C:C:1F)C(:O):O)(C1:C:C(F):C(:C:C:1F)C1:C:C(F):C(:C:C:1F)C(:O):O)C1:C:C(F):C(:C:C:1F)C1:C:C(F):C(:C:C:1F)C(C1:C:C(F):C(:C:C:1F)C1:C:C(F):C(:C:C:1F)C(:O):O)(C1:C:C(F):C(:C:C:1F)C1:C:C(F):C(:C:C:1F)C(:O):O)C1:C:C(F):C(:C:C:1F)C1:C:C(F):C(:C:C:1F)C(:O):O,1
SR_bik_v1-4c_Cd_1_Ch_v2-4c_bicyclooctane_Ch_1B_2CH3_Ch_ntn_edge_2x1x2,0.15408,0.75944,0.586309,3738.09,2191.68,10.10409,7.1229,49558.76644,,,,1632,,256,256,256,C24Cd1H18O8,0.02,4,4c_Cd_1_Ch,"22,136",CC1:C:C(C(:O):O):C(C):C:C:1C(:O):O___CC1:C:C2:C(C):C:C:1C1=CC3(C=C(C(:O):O)C1C(=C3)C(:O):O)C1:C:C(C):C(:C:C:1C)C1=CC3(C=C(C(:O):O)C1C(=C3)C(:O):O)C1:C:C(C):C(:C:C:1C)C1=CC3(C=C(C(:O):O)C1C(=C3)C(:O):O)C1:C:C(C):C(:C:C:1C)C1=CC23C=C(C(:O):O)C1C(=C3)C(:O):O,1
SR_bix_v1-4c_1anC_Ch_v2-6c_Zn_1_Ch_v3-6c_Zn_1_Ch_1B_2NH2_Ch_1x1x1,0.16801,0.71668,0.739377,2578.97,1906.83,11.14614,6.76702,85983.47455,,,,3472,,512,512,384,C87H72N24O26Zn8,0.038277512,6,6c_Zn_1_Ch,69,NC1:C:C(:C(N):C:C:1C(:O):O)C(C1:C:C(N):C(:C:C:1N)C(:O):O)(C1:C:C(N):C(:C:C:1N)C(:O):O)C1:C:C(N):C(:C:C:1N)C(:O):O,1
SR_bcu_v1-8c_Co_1_Ch_1B_2CN_Ch_2x2x2,0.30479,0.54582,1.21268,0,0,5.10453,2.60056,24320.07738,,,,1232,,320,320,256,C40Co4H8N8O17,0.054794521,8,8c_Co_1_Ch,18,N#CC1:C:C(C(:O):O):C(C#N):C:C:1C(:O):O,1
SR_bix_v1-4c_bicyclooctane_Ch_v2-6c_CdZn_1_Ch_v3-6c_CdZn_1_Ch_1DoU_Ch_1TrU_Ch_1x1x1,0.11288,0.79846,0.683766,3156.08,2158.02,13.69753,8.79432,76159.61547,,,,1792,,512,512,384,C30Cd3H9O13Zn1,0.076923077,6,6c_CdZn_1_Ch,34,O:C(:O)C#CC1=CC2(C#CC(:O):O)C=C(C#CC(:O):O)C1C(C=CC(:O):O)=C2,1
SR_bix_v1-4c_bicyclooctane_Ch_v2-6c_CdZn_1_Ch_v3-6c_CdZn_1_Ch_ntn_edge_1B_2F_Ch_1x1x1,0.11228,0.72466,0.870048,2259.14,1965.56,13.21632,6.28355,81668.80932,,,,2752,,512,512,384,C45Cd3F9H15O13Zn1,0.048780488,6,6c_CdZn_1_Ch,54,O:C(:O)C1=CC2(C=C(C3:C:C(F):C(:C:C:3F)C(:O):O)C1C(=C2)C1:C:C(F):C(:C:C:1F)C(:O):O)C1:C:C(F):C(:C:C:1F)C(:O):O,1