name,k,VF,density,ASA_grav,ASA_vol,LPD,PLD,volume,,,,N_atoms,,N_metal_containing_bonds,N_metal_nonmetal_bonds,N_metal_linker_bonds,formula,metal_nonmetal_ratio,metal_node_connectivity,metal_node_name,N_atoms_per_linker,linker_SMILES,N_ccs
SR_eps_v1-3c_pyrrole_Ch_v2-8c_Co_2_Ch_v3-4c_porphyrin_Ch_1B_4Br_Ch_1x1x1,0.1496,0.7844,0.827238,1883.76,1558.32,24.50101,7.61879,36556.10893,,,,705,,60,60,48,Br48C124Cl1Co4H26N32,0.017316017,8,8c_Co_2_Ch,230,BrC1:C(Br):C(:C(Br):C(Br):C:1C1C:N:N:N:1)C1:C:C:C(C2:C(Br):C(Br):C(C3C:N:N:N:3):C(Br):C:2Br):N:1C1:C(Br):C(Br):C(:C(Br):C:1Br)C1:C2:C:C:C(:N:2):C(C2:C(Br):C(Br):C(:C(Br):C:2Br)N2:C(:C:C:C:2C2:C(Br):C(Br):C(C3C:N:N:N:3):C(Br):C:2Br)C2:C(Br):C(Br):C(C3C:N:N:N:3):C(Br):C:2Br):C2:C:C:C(:[NH]:2):C(C2:C(Br):C(Br):C(:C(Br):C:2Br)N2:C(:C:C:C:2C2:C(Br):C(Br):C(C3C:N:N:N:3):C(Br):C:2Br)C2:C(Br):C(Br):C(C3C:N:N:N:3):C(Br):C:2Br):C2:C:C:C(:N:2):C(C2:C(Br):C(Br):C(:C(Br):C:2Br)N2:C(:C:C:C:2C2:C(Br):C(Br):C(C3C:N:N:N:3):C(Br):C:2Br)C2:C(Br):C(Br):C(C3C:N:N:N:3):C(Br):C:2Br):C2:C:C:C:1:[NH]:2,1
SR_dnz_v1-4c_1anC_Ch_v2-6c_Zr_1_Ch_v3-3c_B_Ch_1B_4Br_Ch_1x1x1,0.14426,0.51948,1.99139,0,0,8.03862,2.70245,80685.20352,,,,3312,,768,768,192,Br48C93H28O32Zr6,0.029850746,6,6c_Zr_1_Ch,318,O:C(:O)C1:C(Br):C(Br):C(:C(Br):C:1Br)C1(C2:C(Br):C(Br):C(C(:O):O):C(Br):C:2Br)C2:C(Br):C(Br):C(C3:C:C4:C:C(:C:3)C3:C(Br):C(Br):C(:C(Br):C:3Br)C(C3:C(Br):C(Br):C(C(:O):O):C(Br):C:3Br)(C3:C(Br):C(Br):C(C(:O):O):C(Br):C:3Br)C3:C(Br):C(Br):C(C5:C:C6:C:C(:C:5)C5:C(Br):C(Br):C(:C(Br):C:5Br)C(C5:C(Br):C(Br):C(C(:O):O):C(Br):C:5Br)(C5:C(Br):C(Br):C(C(:O):O):C(Br):C:5Br)C5:C(Br):C(Br):C(C7:C:C(:C:C(:C:7)C7:C(Br):C(Br):C(:C(Br):C:7Br)C(C7:C(Br):C(Br):C(C(:O):O):C(Br):C:7Br)(C7:C(Br):C(Br):C(C(:O):O):C(Br):C:7Br)C7:C(Br):C(Br):C(C8:C:C(:C:C(:C:8)C8:C(Br):C(Br):C(:C(Br):C:8Br)C(C8:C(Br):C(Br):C(C(:O):O):C(Br):C:8Br)(C8:C(Br):C(Br):C(C(:O):O):C(Br):C:8Br)C8:C(Br):C(Br):C6:C(Br):C:8Br)C6:C(Br):C(Br):C1:C(Br):C:6Br):C(Br):C:7Br)C1:C(Br):C(Br):C(:C(Br):C:1Br)C(C1:C(Br):C(Br):C(C(:O):O):C(Br):C:1Br)(C1:C(Br):C(Br):C(C(:O):O):C(Br):C:1Br)C1:C(Br):C(Br):C4:C(Br):C:1Br):C(Br):C:5Br):C(Br):C:3Br):C(Br):C:2Br,1
SR_dnl_v1-4c_Ni_1_Ch_v2-6c_Ni_1_Ch_v3-3c_B_Ch_1TrU_Ch_1DoU_Ch_1x1x1,0.15426,0.77736,0.657389,3765.9,2475.66,11.63917,7.57558,75321.49123,,,,1952,,720,672,576,C27H10Ni5O19,0.089285714,"4,6","4c_Ni_1_Ch,6c_Ni_1_Ch","24,10",O:C(:O)C#CC1:C:C(C#CC(:O):O):C:C(C#CC(:O):O):C:1___O:C(:O)C=CC(:O):O,1
SR_epc_v1-6c_Cr_1_Ch_v2-4c_1anC_Ch_v3-4c_B_Ch_2B_2F_Ch_1x1x1,0.10344,0.85666,0.356359,4239.01,1510.61,27.6767,16.55989,69376.99499,,,,1204,,120,120,96,C169Cr6F48H52O26,0.020338983,6,6c_Cr_1_Ch,"93,100",O:C(:O)C1:C:C(F):C(:C:C:1F)C1:C:C(F):C(:C:C:1F)C(C1:C:C(F):C(:C:C:1F)C1:C:C(F):C(:C:C:1F)C(:O):O)(C1:C:C(F):C(:C:C:1F)C1:C:C(F):C(:C:C:1F)C(:O):O)C1:C:C(F):C(:C:C:1F)C1:C:C(F):C(:C:C:1F)C(:O):O___O:C(:O)C1:C:C(F):C(:C:C:1F)C1:C:C(F):C(:C:C:1F)C1:C:C(C2:C:C(F):C(:C:C:2F)C2:C:C(F):C(:C:C:2F)C(:O):O):C(:C:C:1C1:C:C(F):C(:C:C:1F)C1:C:C(F):C(:C:C:1F)C(:O):O)C1:C:C(F):C(:C:C:1F)C1:C:C(F):C(:C:C:1F)C(:O):O,1
SR_dnj_v1-8c_Co_1_Ch_v2-6c_B_Ch_v3-3c_B_Ch_1B_2CH3_Ch_1x1x1,0.14469,0.79632,0.424507,2986.12,1267.63,23.72072,17.35406,51684.96836,,,,1566,,120,120,96,C132Co4H108O17,0.015564202,8,8c_Co_1_Ch,384,CC1:C:C(C2:C:C(:C:C(:C:2)C2:C:C(C):C(:C:C:2C)C2:C(C3:C:C(C):C(:C:C:3C)C3:C:C(:C:C(:C:3)C3:C:C(C):C(:C:C:3C)C(:O):O)C3:C:C(C):C(:C:C:3C)C(:O):O):C(C3:C:C(C):C(:C:C:3C)C3:C:C(:C:C(:C:3)C3:C:C(C):C(:C:C:3C)C(:O):O)C3:C:C(C):C(:C:C:3C)C(:O):O):C(C3:C:C(C):C(:C:C:3C)C3:C:C(:C:C(:C:3)C3:C:C(C):C(:C:C:3C)C(:O):O)C3:C:C(C):C(:C:C:3C)C(:O):O):C(C3:C:C(C):C(:C:C:3C)C3:C:C(:C:C(:C:3)C3:C:C(C):C(:C:C:3C)C(:O):O)C3:C:C(C):C(:C:C:3C)C(:O):O):C:2C2:C:C(C):C(:C:C:2C)C2:C:C(:C:C(:C:2)C2:C:C(C):C(:C:C:2C)C(:O):O)C2:C:C(C):C(:C:C:2C)C(:O):O)C2:C:C(C):C(:C:C:2C)C(:O):O):C(C):C:C:1C(:O):O,1
SR_dni_v1-8c_Co_1_Ch_v2-3c_B_Ch_v3-3c_B_Ch_1B_2SH_Ch_ntn_edge_1x1x1,0.17129,0.69814,0.738161,2170.4,1602.1,17.49831,4.40106,28698.75944,,,,1038,,120,120,96,C88Co4H48O17S16,0.023668639,8,8c_Co_1_Ch,126,O:C(:O)C1:C:C(S):C(:C:C:1S)C1:C:C(:C:C(:C:1)C1:C:C(S):C(:C:C:1S)C(:O):O)C1:C:C(:C:C(:C:1)C1:C:C(:C:C(:C:1)C1:C:C(S):C(:C:C:1S)C(:O):O)C1:C:C(S):C(:C:C:1S)C(:O):O)C1:C:C(:C:C(:C:1)C1:C:C(S):C(:C:C:1S)C(:O):O)C1:C:C(S):C(:C:C:1S)C(:O):O,1
SR_dpe_v1-6c_Zr_1_Ch_v2-8c_Zr_1_Ch_v3-4c_porphyrin_Ch_1B_2CN_Ch_1x1x1,0.09763,0.7115,0.781477,2443.2,1909.31,16.49257,6.03275,43848.59445,,,,1494,,528,528,144,C288H190N60O176Zr33,0.046218487,"6,8","6c_Zr_1_Ch,8c_Zr_1_Ch","94,18",N#CC1:C:C(:C(C#N):C:C:1C(:O):O)C1:C2:C:C:C(:N:2):C(C2:C:C(C#N):C(:C:C:2C#N)C(:O):O):C2:C:C:C(:[NH]:2):C(C2:C:C(C#N):C(:C:C:2C#N)C(:O):O):C2:C:C:C(:N:2):C(C2:C:C(C#N):C(:C:C:2C#N)C(:O):O):C2:C:C:C:1:[NH]:2___N#CC1:C:C(C(:O):O):C(C#N):C:C:1C(:O):O,1
SR_epo_v1-3c_pyrrole_Ch_v2-6c_Ni_1_Ch_v3-4c_Ni_1_Ch_1B_4F_Ch_1x1x1,0.07831,0.83852,0.477236,3344,1595.88,21.83931,14.02563,63421.63981,,,,1180,,198,192,144,C150F72H16N6Ni11O40,0.038732394,"4,6","4c_Ni_1_Ch,6c_Ni_1_Ch",46,O:C(:O)C1:C(F):C(F):C(:C(F):C:1F)C1:C:C:C(C2:C(F):C(F):C(C(:O):O):C(F):C:2F):N:1C1:C(F):C(F):C(C(:O):O):C(F):C:1F,1
SR_dni_v1-8c_Co_1_Ch_v2-3c_triazine_Ch_v3-3c_triazine_Ch_2B_4F_Ch_1x1x1,0.06439,0.88942,0.308294,3959.65,1220.74,39.39581,11.45314,147834.1945,,,,1806,,120,120,96,C168Co4F96N16O17,0.013468013,8,8c_Co_1_Ch,222,O:C(:O)C1:C(F):C(F):C(:C(F):C:1F)C1:C(F):C(F):C(C2:N:C(:N:C(:N:2)C2:C(F):C(F):C(:C(F):C:2F)C2:C(F):C(F):C(C3:N:C(:N:C(:N:3)C3:C(F):C(F):C(:C(F):C:3F)C3:C(F):C(F):C(C4:N:C(:N:C(:N:4)C4:C(F):C(F):C(:C(F):C:4F)C4:C(F):C(F):C(C(:O):O):C(F):C:4F)C4:C(F):C(F):C(:C(F):C:4F)C4:C(F):C(F):C(C(:O):O):C(F):C:4F):C(F):C:3F)C3:C(F):C(F):C(:C(F):C:3F)C3:C(F):C(F):C(C4:N:C(:N:C(:N:4)C4:C(F):C(F):C(:C(F):C:4F)C4:C(F):C(F):C(C(:O):O):C(F):C:4F)C4:C(F):C(F):C(:C(F):C:4F)C4:C(F):C(F):C(C(:O):O):C(F):C:4F):C(F):C:3F):C(F):C:2F)C2:C(F):C(F):C(:C(F):C:2F)C2:C(F):C(F):C(C(:O):O):C(F):C:2F):C(F):C:1F,1
SR_dnl_v1-4c_Ni_1_Ch_v2-6c_Ni_1_Ch_v3-3c_B_Ch_1B_2SH_Ch_1x1x1,0.14188,0.75798,0.64685,3234.55,2092.27,14.1554,6.45484,133331.6757,,,,3680,,720,672,576,C51H28Ni5O19S12,0.045454545,"4,6","4c_Ni_1_Ch,6c_Ni_1_Ch","18,54",O:C(:O)C1:C:C(S):C(:C:C:1S)C(:O):O___O:C(:O)C1:C:C(S):C(:C:C:1S)C1:C:C(:C:C(:C:1)C1:C:C(S):C(:C:C:1S)C(:O):O)C1:C:C(S):C(:C:C:1S)C(:O):O,1
SR_epc_v1-6c_Fe_1_Ch_v2-4c_bicyclooctane_Ch_v3-4c_B_Ch_2B_2CN_Ch_1x1x1,0.10463,0.82522,0.381537,4144.32,1581.21,25.25326,13.98956,72608.58786,,,,1440,,120,120,96,C112Fe3H28N24O13,0.016949153,6,6c_Fe_1_Ch,"116,120",N#CC1:C:C(:C(C#N):C:C:1C(:O):O)C1:C:C(C#N):C(:C:C:1C#N)C1:C:C(C2:C:C(C#N):C(:C:C:2C#N)C2:C:C(C#N):C(:C:C:2C#N)C(:O):O):C(:C:C:1C1:C:C(C#N):C(:C:C:1C#N)C1:C:C(C#N):C(:C:C:1C#N)C(:O):O)C1:C:C(C#N):C(:C:C:1C#N)C1:C:C(C#N):C(:C:C:1C#N)C(:O):O___N#CC1:C:C(:C(C#N):C:C:1C1=CC2(C=C(C3:C:C(C#N):C(:C:C:3C#N)C3:C:C(C#N):C(:C:C:3C#N)C(:O):O)C1C(=C2)C1:C:C(C#N):C(:C:C:1C#N)C1:C:C(C#N):C(:C:C:1C#N)C(:O):O)C1:C:C(C#N):C(:C:C:1C#N)C1:C:C(C#N):C(:C:C:1C#N)C(:O):O)C1:C:C(C#N):C(:C:C:1C#N)C(:O):O,1
SR_eps_v1-3c_pyrrole_Ch_v2-8c_Co_2_Ch_v3-4c_porphyrin_Ch_2B_2CH3_Ch_1x1x1,0.06595,0.89522,0.208702,6074.4,1267.74,37.36329,14.13826,92371.4713,,,,1497,,60,60,48,C244Cl1Co4H218N32,0.008080808,8,8c_Co_2_Ch,494,CC1:C:C(:C(C):C:C:1C1C:N:N:N:1)C1:C:C(C):C(:C:C:1C)C1:C:C:C(C2:C:C(C):C(:C:C:2C)C2:C:C(C):C(:C:C:2C)C2C:N:N:N:2):N:1C1:C:C(C):C(:C:C:1C)C1:C:C(C):C(:C:C:1C)C1:C2:C:C:C(:N:2):C(C2:C:C(C):C(:C:C:2C)C2:C:C(C):C(:C:C:2C)N2:C(:C:C:C:2C2:C:C(C):C(:C:C:2C)C2:C:C(C):C(:C:C:2C)C2C:N:N:N:2)C2:C:C(C):C(:C:C:2C)C2:C:C(C):C(:C:C:2C)C2C:N:N:N:2):C2:C:C:C(:[NH]:2):C(C2:C:C(C):C(:C:C:2C)C2:C:C(C):C(:C:C:2C)N2:C(:C:C:C:2C2:C:C(C):C(:C:C:2C)C2:C:C(C):C(:C:C:2C)C2C:N:N:N:2)C2:C:C(C):C(:C:C:2C)C2:C:C(C):C(:C:C:2C)C2C:N:N:N:2):C2:C:C:C(:N:2):C(C2:C:C(C):C(:C:C:2C)C2:C:C(C):C(:C:C:2C)N2:C(:C:C:C:2C2:C:C(C):C(:C:C:2C)C2:C:C(C):C(:C:C:2C)C2C:N:N:N:2)C2:C:C(C):C(:C:C:2C)C2:C:C(C):C(:C:C:2C)C2C:N:N:N:2):C2:C:C:C:1:[NH]:2,1
SR_dpd_v1-4c_bicyclooctane_Ch_v2-4c_Cu_1_Ch_v3-4c_1anC_Ch_1DoU_Ch_1B_4H_Ch_1x1x1,0.13292,0.80976,0.46418,3852.18,1788.1,18.33367,10.01921,55484.55251,,,,1432,,216,192,192,C93Cu6H56O24,0.034682081,4,4c_Cu_1_Ch,173,O:C(:O)C=CC1=CC2(C=C(C=CC(:O):O)C1C(C=CC(:O):O)=C2)C1:C:C:C(:C:C:1)C(C1:C:C:C(:C:C:1)C12C=C(C=CC(:O):O)C(C(C=CC(:O):O)=C1)C(C=CC(:O):O)=C2)(C1:C:C:C(:C:C:1)C12C=C(C=CC(:O):O)C(C(C=CC(:O):O)=C1)C(C=CC(:O):O)=C2)C1:C:C:C(:C:C:1)C12C=C(C=CC(:O):O)C(C(C=CC(:O):O)=C1)C(C=CC(:O):O)=C2,1
SR_dni_v1-8c_Co_1_Ch_v2-3c_B_Ch_v3-3c_B_Ch_ntn_edge_2x2x2,0.54592,0.59926,1.07498,0,0,13.47589,2.38528,74463.91212,,,,3696,,960,960,768,C40Co4H16O17,0.054794521,8,8c_Co_1_Ch,54,O:C(:O)C1:C:C(:C:C(:C:1)C1:C:C(:C:C(:C:1)C1:C:C(:C:C(:C:1)C(:O):O)C(:O):O)C1:C:C(:C:C(:C:1)C(:O):O)C(:O):O)C(:O):O,1
SR_dnl_v1-4c_porphyrin_Ch_v2-6c_CdZn_1_Ch_v3-3c_triazine_Ch_ntn_edge_1B_2F_Ch_1x1x1,0.15661,0.68072,0.847682,2012.31,1705.8,10.44121,7.03119,76171.25436,,,,3152,,256,256,192,C108Cd3F12H42N18O13Zn1,0.020725389,6,6c_CdZn_1_Ch,384,O:C(:O)C1:C2:C:C:C(:N:2):C2C3:C:C(F):C(:C:C:3F)C3:N:C4:N:C(:N:3)C3:C:C(F):C(:C:C:3F)C3:C5:C:C:C(:N:5):C(C(:O):O):C5:C:C:C(:[NH]:5):C(C(:O):O):C5:C:C:C(:N:5):C(C5:C:C(F):C(:C:C:5F)C5:N:C6:N:C(:N:5)C5:C:C(F):C(:C:C:5F)C5:C7:C:C:C(:N:7):C(C(:O):O):C7:C:C:C(:[NH]:7):C(C(:O):O):C7:C:C:C(:N:7):C(C7:C:C(F):C(:C:C:7F)C7:N:C(:N:C(:N:7)C7:C:C(F):C(:C:C:7F)C7:C8:C:C:C(:N:8):C(C(:O):O):C8:C:C:C(:[NH]:8):C(C(:O):O):C8:C:C:C(:N:8):C(C8:C:C(F):C(:C:C:8F)C8:N:C(:N:C(:N:8)C8:C:C(F):C(:C:C:8F)C8:C9:C:C:C(:N:9):C(C(:O):O):C9:C:C:C(:[NH]:9):C(C(:O):O):C9:C:C:C(:N:9):C(C9:C:C(F):C6:C:C:9F):C6:C:C:C:8:[NH]:6)C6:C:C(F):C(:C:C:6F)C(:C6:C:C:C(:N:6):C(C(:O):O):C6:C:C:C:1:[NH]:6):C1:C:C:C:2:[NH]:1):C1:C:C:C:7:[NH]:1)C1:C:C(F):C(:C:C:1F)C1:C2:C:C:C(:N:2):C(C(:O):O):C2:C:C:C(:[NH]:2):C(C(:O):O):C2:C:C:C(:N:2):C(C2:C:C(F):C4:C:C:2F):C2:C:C:C:1:[NH]:2):C1:C:C:C:5:[NH]:1):C1:C:C:C:3:[NH]:1,1
SR_dnl_v1-4c_porphyrin_Ch_v2-6c_CdZn_1_Ch_v3-3c_triazine_Ch_2B_fused_Ch_1x1x1,0.11259,0.86596,0.306763,5579.29,1711.52,20.44832,13.356,283376.6714,,,,5264,,256,256,192,C192Cd3H102N18O13Zn1,0.012307692,6,6c_CdZn_1_Ch,,None,1
SR_epa_v1-6c_Mg_1_Ch_v2-6c_Mg_1_Ch_v3-4c_B_Ch_1B_4Br_Ch_ntn_edge_2x2x1,0.34609,0.66046,1.15123,1294.85,1490.66,13.53337,4.81049,152498.5742,,,,4032,,1440,1440,576,Br8C23H5Mg4O16,0.076923077,6,6c_Mg_1_Ch,"6,60",O:C(:O)C(:O):O___O:C(:O)C1:C(Br):C(Br):C(C2:C:C(:C(:C:C:2C2:C(Br):C(Br):C(C(:O):O):C(Br):C:2Br)C2:C(Br):C(Br):C(C(:O):O):C(Br):C:2Br)C2:C(Br):C(Br):C(C(:O):O):C(Br):C:2Br):C(Br):C:1Br,1
SR_dmc_v1-3c_Cu_imadazoline_Ch_v2-4c_1anC_Ch_ntn_edge_2TrU_Ch_2x1x1,0.11669,0.90616,0.261956,6276.03,1644.04,16.16838,14.97238,27657.43172,,,,296,,48,48,48,C22Cu3H6N6,0.088235294,3,3c_Cu_imadazoline_Ch,68,C(C#CC(C#CC#CC1:C:N:N:C:1)(C#CC#CC1:C:N:N:C:1)C(C#CC#CC1:C:N:N:C:1)(C#CC#CC1:C:N:N:C:1)C#CC#CC1:C:N:N:C:1)#CC1:C:N:N:C:1,1
SR_epe_v1-4c_porphyrin_Ch_v2-3c_pyrrole_Ch_v3-4c_Cu_1_Ch_1B_2CN_Ch_1x1x1,0.11692,0.92598,0.160027,4676.98,748.445,56.33552,23.97103,334404.8959,,,,3048,,108,96,96,C78Cu1H26N18O4,0.007936508,4,4c_Cu_1_Ch,,None,1
SR_dnr_v1-4c_B_Ch_v2-4c_Cu_1_Ch_v3-3c_Cu_imadazoline_Ch_1TrU_Ch_1x1x2,0.10292,0.94596,0.165546,5421.28,897.469,56.86305,54.82649,175385.7567,,,,936,,252,240,240,C37Cu8H13N12O8,0.114285714,"3,4","3c_Cu_imadazoline_Ch,4c_Cu_1_Ch","44,12",C(#CC1:C:C(C#CC2:C:N:N:C:2):C(C#CC2:C:N:N:C:2):C:C:1C#CC1:C:N:N:C:1)C1:C:N:N:C:1___O:C(:O)C#CC1:C:N:N:C:1,1
SR_dnj_v1-8c_Co_1_Ch_v2-6c_B_Ch_v3-3c_triazine_Ch_1TrU_Ch_ntn_edge_1x1x1,0.35167,0.78648,0.588795,2670.93,1572.63,19.35362,14.05866,19565.17106,,,,438,,120,120,96,C40Co4N12O17,0.057971014,8,8c_Co_1_Ch,102,O:C(:O)C#CC1:N:C(C#CC(:O):O):N:C(:N:1)C1:C(C2:N:C(C#CC(:O):O):N:C(C#CC(:O):O):N:2):C(C2:N:C(C#CC(:O):O):N:C(C#CC(:O):O):N:2):C(C2:N:C(C#CC(:O):O):N:C(C#CC(:O):O):N:2):C(C2:N:C(C#CC(:O):O):N:C(C#CC(:O):O):N:2):C:1C1:N:C(C#CC(:O):O):N:C(C#CC(:O):O):N:1,1
SR_epa_v1-6c_Mg_1_Ch_v2-6c_B_Ch_v3-4c_B_Ch_1B_2NH2_Ch_2x2x1,0.17032,0.71546,0.617246,2862.24,1766.71,15.35749,6.26565,158202.1874,,,,5112,,1080,1080,432,C28H22Mg3N6O12,0.044117647,6,6c_Mg_1_Ch,"108,76",NC1:C:C(:C(N):C:C:1C(:O):O)C1:C(C2:C:C(N):C(:C:C:2N)C(:O):O):C(C2:C:C(N):C(:C:C:2N)C(:O):O):C(C2:C:C(N):C(:C:C:2N)C(:O):O):C(C2:C:C(N):C(:C:C:2N)C(:O):O):C:1C1:C:C(N):C(:C:C:1N)C(:O):O___NC1:C:C(:C(N):C:C:1C(:O):O)C1:C:C(C2:C:C(N):C(:C:C:2N)C(:O):O):C(:C:C:1C1:C:C(N):C(:C:C:1N)C(:O):O)C1:C:C(N):C(:C:C:1N)C(:O):O,1
SR_ecg_v1-8c_Co_2_Ch_1B_2Br_Ch_1x1x1,0.32932,0.69434,0.992356,1776.8,1763.22,13.70777,8.23141,40171.06155,,,,1116,,240,240,192,Br8C40Cl1Co4H16N24,0.04494382,8,8c_Co_2_Ch,22,BrC1:C:C(C2C:N:N:N:2):C(Br):C:C:1C1C:N:N:N:1,1
SR_ecf_v1-8c_Co_1_Ch_1B_2SH_Ch_2x2x2,0.14523,0.61588,1.07144,1128.39,1209,11.41717,4.90062,100007.7294,,,,3696,,960,960,768,C32Co4H16O17S8,0.054794521,8,8c_Co_1_Ch,18,O:C(:O)C1:C:C(S):C(:C:C:1S)C(:O):O,1
SR_edp_v1-4c_In_1_Ch_v2-4c_In_1_Ch_1B_2CF3_Ch_ntn_edge_1x1x1,0.07108,0.79082,0.721433,2511.85,1812.13,16.12308,8.85015,43851.58563,,,,1008,,384,384,384,C8F3H1In1O8,0.05,4,4c_In_1_Ch,"6,22",O:C(:O)C(:O):O___O:C(:O)C1:C:C(:C(:C:C:1C(F)(F)F)C(:O):O)C(F)(F)F,1
SR_dni_v1-8c_Co_1_Ch_v2-3c_triazine_Ch_v3-3c_pyrrole_Ch_1B_2NH2_Ch_1x1x1,0.09722,0.73894,0.607591,2567.02,1559.7,20.51539,5.56735,36717.2309,,,,1398,,120,120,96,C100Co4H80N32O17,0.017467249,8,8c_Co_1_Ch,171,NC1:C:C(:C(N):C:C:1C(:O):O)C1:C:C:C(C2:C:C(N):C(:C:C:2N)C(:O):O):N:1C1:C:C(N):C(:C:C:1N)C1:N:C(:N:C(:N:1)C1:C:C(N):C(:C:C:1N)N1:C(:C:C:C:1C1:C:C(N):C(:C:C:1N)C(:O):O)C1:C:C(N):C(:C:C:1N)C(:O):O)C1:C:C(N):C(:C:C:1N)N1:C(:C:C:C:1C1:C:C(N):C(:C:C:1N)C(:O):O)C1:C:C(N):C(:C:C:1N)C(:O):O,1
SR_eea_v1-3c_B_Ch_v2-6c_Ni_1_Ch_1B_4Br_Ch_1x1x1,0.07939,0.79232,0.857064,1784.74,1529.63,18.85678,13.64545,60392.01324,,,,936,,162,162,108,Br12C27H4Ni2O7,0.04,6,6c_Ni_1_Ch,48,O:C(:O)C1:C(Br):C(Br):C(C2:C:C(:C:C(:C:2)C2:C(Br):C(Br):C(C(:O):O):C(Br):C:2Br)C2:C(Br):C(Br):C(C(:O):O):C(Br):C:2Br):C(Br):C:1Br,1
SR_eft_v1-4c_porphyrin_Ch_v2-8c_Zr_1_Ch_v3-3c_pyrrole_Ch_1B_2SH_Ch_2x2x2,0.09419,0.73956,0.652084,2918.95,1903.4,10.93485,8.0415,74660.39855,,,,2144,,384,384,128,C58H41N4O16S12Zr3,0.022900763,8,8c_Zr_1_Ch,230,O:C(:O)C1:C:C(S):C(:C:C:1S)C1:C:C:C(C2:C:C(S):C(:C:C:2S)C2:C3:C:C:C(:N:3):C(C3:C:C(S):C(:C:C:3S)C3:C:C:C(C4:C:C(S):C(:C:C:4S)C(:O):O):N:3C3:C:C(S):C(:C:C:3S)C(:O):O):C3:C:C:C(:[NH]:3):C(C3:C:C(S):C(:C:C:3S)C3:C:C:C(C4:C:C(S):C(:C:C:4S)C(:O):O):N:3C3:C:C(S):C(:C:C:3S)C(:O):O):C3:C:C:C(:N:3):C(C3:C:C(S):C(:C:C:3S)C3:C:C:C(C4:C:C(S):C(:C:C:4S)C(:O):O):N:3C3:C:C(S):C(:C:C:3S)C(:O):O):C3:C:C:C:2:[NH]:3):N:1C1:C:C(S):C(:C:C:1S)C(:O):O,1
SR_dna_v1-8c_Co_1_Ch_v2-6c_B_Ch_v3-3c_B_Ch_1B_2CH3_Ch_ntn_edge_1x1x1,0.16413,0.69592,0.661871,1997.31,1321.96,23.26184,9.27232,53758.35616,,,,2364,,240,240,192,C100Co4H76O17,0.020725389,8,8c_Co_1_Ch,288,CC1:C:C(C2:C:C(:C:C(:C:2)C2:C(C3:C:C(:C:C(:C:3)C3:C:C(C):C(:C:C:3C)C(:O):O)C3:C:C(C):C(:C:C:3C)C(:O):O):C(C3:C:C(:C:C(:C:3)C3:C:C(C):C(:C:C:3C)C(:O):O)C3:C:C(C):C(:C:C:3C)C(:O):O):C(C3:C:C(:C:C(:C:3)C3:C:C(C):C(:C:C:3C)C(:O):O)C3:C:C(C):C(:C:C:3C)C(:O):O):C(C3:C:C(:C:C(:C:3)C3:C:C(C):C(:C:C:3C)C(:O):O)C3:C:C(C):C(:C:C:3C)C(:O):O):C:2C2:C:C(:C:C(:C:2)C2:C:C(C):C(:C:C:2C)C(:O):O)C2:C:C(C):C(:C:C:2C)C(:O):O)C2:C:C(C):C(:C:C:2C)C(:O):O):C(C):C:C:1C(:O):O,1
SR_eci_v1-8c_Zr_1_Ch_1B_2SH_Ch_2x1x1,0.12718,0.60524,1.15513,1154.08,1333.11,10.18186,5.12033,41404.1063,,,,1760,,768,768,256,C16H16O16S4Zr3,0.057692308,8,8c_Zr_1_Ch,18,O:C(:O)C1:C:C(S):C(:C:C:1S)C(:O):O,1
SR_dnr_v1-4c_pyrene_Ch_v2-4c_Cu_1_Ch_v3-3c_Cu_imadazoline_Ch_ntn_edge_1B_2CF3_Ch_1x1x2,0.03779,0.9233,0.232022,4652.39,1079.45,48.69121,47.19222,201176.2731,,,,1644,,252,240,240,C62Cu8F24H23N12O8,0.062015504,"3,4","3c_Cu_imadazoline_Ch,4c_Cu_1_Ch","50,26",C1:N:N:C:C:1C1:C:C(C2:C:N:N:C:2):C2:C:C:C3:C(:C:C(C4:C:N:N:C:4):C4:C:C:C:1:C:2:C:4:3)C1:C:N:N:C:1___O:C(:O)C1:C:C(:C(:C:C:1C(F)(F)F)C1:C:N:N:C:1)C(F)(F)F,1
SR_dpd_v1-4c_1anC_Ch_v2-4c_V_1_Ch_v3-4c_1anC_Ch_2B_2NO2_Ch_1x1x1,0.08089,0.82942,0.417131,3488.94,1455.34,27.56305,12.65399,197733.3136,,,,3960,,216,192,192,C209H64N64O152V6,0.012269939,4,4c_V_1_Ch,489,O:C(:O)C1:C:C(:C(:C:C:1N(:O):O)C1:C:C(:C(:C:C:1N(:O):O)C(C1:C:C(:C(:C:C:1N(:O):O)C1:C:C(:C(:C:C:1N(:O):O)C(:O):O)N(:O):O)N(:O):O)(C1:C:C(:C(:C:C:1N(:O):O)C1:C:C(:C(:C:C:1N(:O):O)C(:O):O)N(:O):O)N(:O):O)C1:C:C(:C(:C:C:1N(:O):O)C1:C:C(:C(:C:C:1N(:O):O)C(C1:C:C(:C(:C:C:1N(:O):O)C1:C:C(:C(:C:C:1N(:O):O)C(C1:C:C(:C(:C:C:1N(:O):O)C1:C:C(:C(:C:C:1N(:O):O)C(:O):O)N(:O):O)N(:O):O)(C1:C:C(:C(:C:C:1N(:O):O)C1:C:C(:C(:C:C:1N(:O):O)C(:O):O)N(:O):O)N(:O):O)C1:C:C(:C(:C:C:1N(:O):O)C1:C:C(:C(:C:C:1N(:O):O)C(:O):O)N(:O):O)N(:O):O)N(:O):O)N(:O):O)(C1:C:C(:C(:C:C:1N(:O):O)C1:C:C(:C(:C:C:1N(:O):O)C(C1:C:C(:C(:C:C:1N(:O):O)C1:C:C(:C(:C:C:1N(:O):O)C(:O):O)N(:O):O)N(:O):O)(C1:C:C(:C(:C:C:1N(:O):O)C1:C:C(:C(:C:C:1N(:O):O)C(:O):O)N(:O):O)N(:O):O)C1:C:C(:C(:C:C:1N(:O):O)C1:C:C(:C(:C:C:1N(:O):O)C(:O):O)N(:O):O)N(:O):O)N(:O):O)N(:O):O)C1:C:C(:C(:C:C:1N(:O):O)C1:C:C(:C(:C:C:1N(:O):O)C(C1:C:C(:C(:C:C:1N(:O):O)C1:C:C(:C(:C:C:1N(:O):O)C(:O):O)N(:O):O)N(:O):O)(C1:C:C(:C(:C:C:1N(:O):O)C1:C:C(:C(:C:C:1N(:O):O)C(:O):O)N(:O):O)N(:O):O)C1:C:C(:C(:C:C:1N(:O):O)C1:C:C(:C(:C:C:1N(:O):O)C(:O):O)N(:O):O)N(:O):O)N(:O):O)N(:O):O)N(:O):O)N(:O):O)N(:O):O)N(:O):O,1
SR_eps_v1-3c_B_Ch_v2-8c_Co_2_Ch_v3-4c_porphyrin_Ch_1B_2OH_Ch_ntn_edge_2x2x2,0.16377,0.60978,0.92213,1399.24,1290.28,11.55357,4.51962,79858.10083,,,,4104,,480,480,384,C84Cl1Co4H46N28O8,0.023952096,8,8c_Co_2_Ch,166,OC1:C:C(:C(O):C:C:1C1:C:C(:C:C(:C:1)C1C:N:N:N:1)C1C:N:N:N:1)C1:C2:C:C:C(:N:2):C(C2:C:C(O):C(:C:C:2O)C2:C:C(:C:C(:C:2)C2C:N:N:N:2)C2C:N:N:N:2):C2:C:C:C(:[NH]:2):C(C2:C:C(O):C(:C:C:2O)C2:C:C(:C:C(:C:2)C2C:N:N:N:2)C2C:N:N:N:2):C2:C:C:C(:N:2):C(C2:C:C(O):C(:C:C:2O)C2:C:C(:C:C(:C:2)C2C:N:N:N:2)C2C:N:N:N:2):C2:C:C:C:1:[NH]:2,1
SR_dni_v1-8c_Co_1_Ch_v2-3c_B_Ch_v3-3c_triazine_Ch_1B_2CH3_Ch_1x1x1,0.12947,0.7876,0.459728,3835.91,1763.47,23.16672,7.26946,49116.90743,,,,1542,,120,120,96,C124Co4H100N12O17,0.015810277,8,8c_Co_1_Ch,189,CC1:C:C(C2:N:C(:N:C(:N:2)C2:C:C(C):C(:C:C:2C)C2:C:C(:C:C(:C:2)C2:C:C(C):C(:C:C:2C)C2:N:C(:N:C(:N:2)C2:C:C(C):C(:C:C:2C)C(:O):O)C2:C:C(C):C(:C:C:2C)C(:O):O)C2:C:C(C):C(:C:C:2C)C2:N:C(:N:C(:N:2)C2:C:C(C):C(:C:C:2C)C(:O):O)C2:C:C(C):C(:C:C:2C)C(:O):O)C2:C:C(C):C(:C:C:2C)C(:O):O):C(C):C:C:1C(:O):O,1
SR_dni_v1-8c_Co_1_Ch_v2-3c_B_Ch_v3-3c_triazine_Ch_1B_2NH2_Ch_1x1x1,0.11349,0.80022,0.465568,3736.79,1739.73,23.58408,6.98079,49031.24437,,,,1398,,120,120,96,C100Co4H76N36O17,0.017467249,8,8c_Co_1_Ch,171,NC1:C:C(C2:N:C(:N:C(:N:2)C2:C:C(N):C(:C:C:2N)C2:C:C(:C:C(:C:2)C2:C:C(N):C(:C:C:2N)C2:N:C(:N:C(:N:2)C2:C:C(N):C(:C:C:2N)C(:O):O)C2:C:C(N):C(:C:C:2N)C(:O):O)C2:C:C(N):C(:C:C:2N)C2:N:C(:N:C(:N:2)C2:C:C(N):C(:C:C:2N)C(:O):O)C2:C:C(N):C(:C:C:2N)C(:O):O)C2:C:C(N):C(:C:C:2N)C(:O):O):C(N):C:C:1C(:O):O,1
SR_ecv_v1-8c_Co_1_Ch_1B_4H_Ch_2x2x1,0.28826,0.65392,0.953478,1828.17,1743.12,8.82234,6.42107,101232.626,,,,4416,,1280,1280,1024,C32Co4H16O17,0.061538462,8,8c_Co_1_Ch,16,O:C(:O)C1:C:C:C(:C:C:1)C(:O):O,1
SR_epa_v1-6c_Mg_1_Ch_v2-6c_Mg_1_Ch_v3-4c_pyrene_Ch_1B_2DoU_Ch_1x1x1,0.18885,0.89688,0.211337,6352.07,1342.42,27.66423,16.19023,152673.1876,,,,1746,,360,360,144,C46H31Mg4O16,0.043010753,6,6c_Mg_1_Ch,"24,106",O:C(:O)C=CC1:C:C:C(C=CC(:O):O):C:C:1___O:C(:O)C=CC1:C:C:C(C=CC2:C:C(C=CC3:C:C:C(C=CC(:O):O):C:C:3):C3:C:C:C4:C(C=CC5:C:C:C(C=CC(:O):O):C:C:5):C:C(C=CC5:C:C:C(C=CC(:O):O):C:C:5):C5:C:C:C:2:C:3:C:5:4):C:C:1,1
SR_epe_v1-4c_Ni_1_Ch_v2-3c_pyrrole_Ch_v3-4c_porphyrin_Ch_1B_2CF3_Ch_1x1x1,0.03756,0.89366,0.287261,3057.63,878.336,47.82155,22.705,256281.1235,,,,3384,,216,192,192,C70F36H21N4Ni2O8,0.014388489,4,4c_Ni_1_Ch,278,O:C(:O)C1:C:C(:C(:C:C:1C(F)(F)F)C1:C:C:C(C2:C:C(:C(:C:C:2C(F)(F)F)C(:O):O)C(F)(F)F):N:1C1:C:C(:C(:C:C:1C(F)(F)F)C1:C2:C:C:C(:N:2):C(C2:C:C(:C(:C:C:2C(F)(F)F)N2:C(:C:C:C:2C2:C:C(:C(:C:C:2C(F)(F)F)C(:O):O)C(F)(F)F)C2:C:C(:C(:C:C:2C(F)(F)F)C(:O):O)C(F)(F)F)C(F)(F)F):C2:C:C:C(:[NH]:2):C(C2:C:C(:C(:C:C:2C(F)(F)F)N2:C(:C:C:C:2C2:C:C(:C(:C:C:2C(F)(F)F)C(:O):O)C(F)(F)F)C2:C:C(:C(:C:C:2C(F)(F)F)C(:O):O)C(F)(F)F)C(F)(F)F):C2:C:C:C(:N:2):C(C2:C:C(:C(:C:C:2C(F)(F)F)N2:C(:C:C:C:2C2:C:C(:C(:C:C:2C(F)(F)F)C(:O):O)C(F)(F)F)C2:C:C(:C(:C:C:2C(F)(F)F)C(:O):O)C(F)(F)F)C(F)(F)F):C2:C:C:C:1:[NH]:2)C(F)(F)F)C(F)(F)F,1