name,k,VF,density,ASA_grav,ASA_vol,LPD,PLD,volume,,,,N_atoms,,N_metal_containing_bonds,N_metal_nonmetal_bonds,N_metal_linker_bonds,formula,metal_nonmetal_ratio,metal_node_connectivity,metal_node_name,N_atoms_per_linker,linker_SMILES,N_ccs
SR_lcye_v1-6c_Cr_1_Ch_1B_2DoU_Ch_1x1x1,0.30291,0.87954,0.285303,5237.6,1494.3,21.56626,18.22771,57312.78493,,,,912,,180,180,144,C36Cr3H24O13,0.04109589,6,6c_Cr_1_Ch,24,O:C(:O)C=CC1:C:C:C(C=CC(:O):O):C:C:1,1
SR_kez_v1-6c_Fe_1_Ch_v2-3c_triazine_Ch_v3-6c_B_Ch_1B_2NO2_Ch_2x2x2,0.46636,0.57222,1.07583,473.251,509.139,6.88087,3.94943,125232.2368,,,,5408,,480,480,384,C72Fe3H18N27O49,0.018072289,6,6c_Fe_1_Ch,330,O:C(:O)C1:C:C(:C(:C:C:1N(:O):O)C1:N:C(:N:C(:N:1)C1:C:C(:C(:C:C:1N(:O):O)C1:C(C2:C:C(:C(:C:C:2N(:O):O)C2:N:C(:N:C(:N:2)C2:C:C(:C(:C:C:2N(:O):O)C(:O):O)N(:O):O)C2:C:C(:C(:C:C:2N(:O):O)C(:O):O)N(:O):O)N(:O):O):C(C2:C:C(:C(:C:C:2N(:O):O)C2:N:C(:N:C(:N:2)C2:C:C(:C(:C:C:2N(:O):O)C(:O):O)N(:O):O)C2:C:C(:C(:C:C:2N(:O):O)C(:O):O)N(:O):O)N(:O):O):C(C2:C:C(:C(:C:C:2N(:O):O)C2:N:C(:N:C(:N:2)C2:C:C(:C(:C:C:2N(:O):O)C(:O):O)N(:O):O)C2:C:C(:C(:C:C:2N(:O):O)C(:O):O)N(:O):O)N(:O):O):C(C2:C:C(:C(:C:C:2N(:O):O)C2:N:C(:N:C(:N:2)C2:C:C(:C(:C:C:2N(:O):O)C(:O):O)N(:O):O)C2:C:C(:C(:C:C:2N(:O):O)C(:O):O)N(:O):O)N(:O):O):C:1C1:C:C(:C(:C:C:1N(:O):O)C1:N:C(:N:C(:N:1)C1:C:C(:C(:C:C:1N(:O):O)C(:O):O)N(:O):O)C1:C:C(:C(:C:C:1N(:O):O)C(:O):O)N(:O):O)N(:O):O)N(:O):O)C1:C:C(:C(:C:C:1N(:O):O)C(:O):O)N(:O):O)N(:O):O,1
SR_hbr_v1-8c_Zr_1_Ch_v2-8c_Zr_1_Ch_ntn_edge_1B_2CF3_Ch_1x1x2,0.15545,0.5744,1.35334,642.834,869.975,16.08698,9.24221,44305.53162,,,,1884,,864,864,288,C44F24H32O48Zr9,0.060810811,8,8c_Zr_1_Ch,"6,22",O:C(:O)C(:O):O___O:C(:O)C1:C:C(:C(:C:C:1C(F)(F)F)C(:O):O)C(F)(F)F,1
SR_idp_v1-4c_porphyrin_Ch_v2-3c_triazine_Ch_v3-6c_CdZn_1_Ch_1B_2SH_Ch_ntn_edge_1x1x1,0.10074,0.78406,0.594465,3557.67,2114.91,17.34411,7.48551,44424.64244,,,,1108,,128,128,96,C132Cd6H63N24O26S24Zn2,0.029739777,6,6c_CdZn_1_Ch,178,O:C(:O)C1:C:C(S):C(:C:C:1S)C1:N:C(:N:C(:N:1)C1:C2:C:C:C(:N:2):C(C2:N:C(:N:C(:N:2)C2:C:C(S):C(:C:C:2S)C(:O):O)C2:C:C(S):C(:C:C:2S)C(:O):O):C2:C:C:C(:[NH]:2):C(C2:N:C(:N:C(:N:2)C2:C:C(S):C(:C:C:2S)C(:O):O)C2:C:C(S):C(:C:C:2S)C(:O):O):C2:C:C:C(:N:2):C(C2:N:C(:N:C(:N:2)C2:C:C(S):C(:C:C:2S)C(:O):O)C2:C:C(S):C(:C:C:2S)C(:O):O):C2:C:C:C:1:[NH]:2)C1:C:C(S):C(:C:C:1S)C(:O):O,1
SR_ibe_v1-6c_CdZn_1_Ch_v2-3c_triazine_Ch_1B_4Br_Ch_ntn_edge_1x1x1,0.12479,0.659,1.42279,1130.06,1607.83,7.51755,4.39991,28091.8913,,,,896,,256,256,192,Br6C24Cd3N9O13Zn1,0.076923077,6,6c_CdZn_1_Ch,34,O:C(:O)C1:N:C(:N:C(:N:1)C1:C(Br):C(Br):C(C2:N:C(:N:C(:N:2)C(:O):O)C(:O):O):C(Br):C:1Br)C(:O):O,1
SR_iab_v1-3c_Cu_imadazoline_Ch_v2-4c_Cu_1_Ch_v3-4c_Cu_1_Ch_ntn_edge_1B_2CN_Ch_1x1x1,0.17473,0.8667,0.420841,4628.08,1947.69,14.79034,11.30018,46862.55702,,,,744,,204,192,192,C40Cu9H16N16O12,0.107142857,"3,4","3c_Cu_imadazoline_Ch,4c_Cu_1_Ch","22,10",N#CC1:C:C(C2:C:N:N:C:2):C(C#N):C:C:1C(:O):O___O:C(:O)C1:C:N:N:C:1,1
SR_hbr_v1-8c_Co_1_Ch_v2-8c_Co_2_Ch_1B_2CH3_Ch_1x1x2,0.16685,0.6957,0.744924,1761.22,1311.97,20.31915,12.15026,51096.93249,,,,1818,,360,360,288,C128Cl1Co12H104N24O34,0.041237113,8,"8c_Co_1_Ch,8c_Co_2_Ch","22,25",CC1:C:C(C(:O):O):C(C):C:C:1C(:O):O___CC1:C:C(C(:O):O):C(C):C:C:1C1C:N:N:N:1,1
SR_lcx_v1-8c_Co_2_Ch_1B_2indole_Ch_1x1x1,0.49834,0.79236,0.512616,3409.39,1747.71,21.93879,8.98475,27684.64584,,,,750,,120,120,96,C56Cl1Co4H32N32,0.033057851,8,8c_Co_2_Ch,30,C1:N:N:N:C1C1:C:C2:C:C3:[NH]:C(:C:C:3:C:C:2:[NH]:1)C1C:N:N:N:1,1
SR_hbr_v1-8c_Zr_1_Ch_v2-8c_Zr_1_Ch_1DoU_Ch_ntn_edge_1x1x2,0.15805,0.6543,1.1388,1200.96,1367.65,18.46462,8.61241,37645.09086,,,,1308,,864,864,288,C20H32O48Zr9,0.09,8,8c_Zr_1_Ch,"6,10",O:C(:O)C(:O):O___O:C(:O)C=CC(:O):O,1
SR_itv_v1-4c_1anC_Ch_v2-4c_In_1_Ch_1B_2Br_Ch_ntn_edge_1x1x3,0.15089,0.58296,1.53396,203.797,312.617,5.77134,4.58881,19870.73381,,,,804,,192,192,192,Br8C33H8In2O16,0.030769231,4,4c_In_1_Ch,"6,53",O:C(:O)C(:O):O___O:C(:O)C1:C:C(Br):C(:C:C:1Br)C(C1:C:C(Br):C(:C:C:1Br)C(:O):O)(C1:C:C(Br):C(:C:C:1Br)C(:O):O)C1:C:C(Br):C(:C:C:1Br)C(:O):O,1
SR_fjh_v1-3c_triazine_Ch_v2-4c_Ni_1_Ch_v3-4c_porphyrin_Ch_1DoU_Ch_1x1x1,0.35708,0.81858,0.402856,5355.24,2157.39,12.25796,8.1326,25245.00082,,,,616,,36,32,32,C40H22N10Ni1O4,0.013157895,4,4c_Ni_1_Ch,304,O:C(:O)C=CC1:N:C2C=CC3:C4:C:C:C(:N:4):C4C=CC5:N:C(C=CC(:O):O):N:C(C=CC6:C7:C:C:C(:N:7):C(C=CC(:N:1):N:2):C1:C:C:C(:[NH]:1):C1C=CC2:N:C(C=CC(:O):O):N:C(C=CC7:C8:C:C:C(:N:8):C(C=CC8:N:C(C=CC(:O):O):N:C(C=CC(:C9:C:C:C:1:N:9):C1:C:C:C:6:[NH]:1):N:8):C1:C:C:C(:[NH]:1):C1C=CC6:N:C(C=CC(:O):O):N:C(C=CC8:C9:C:C:C(:N:9):C(C=CC9:N:C(C=CC(:O):O):N:C(C=CC(:C%10:C:C:C:1:N:%10):C1:C:C:C:7:[NH]:1):N:9):C1:C:C:C(:[NH]:1):C1C=CC7:N:C(C=CC(:O):O):N:C(C=CC(:C9:C:C:C(:N:9):C(C=CC9:N:C(C=CC(:O):O):N:C(C=CC(:C%10:C:C:C:1:N:%10):C1:C:C:C:8:[NH]:1):N:9):C1:C:C:C:4:[NH]:1):C1:C:C:C:3:[NH]:1):N:7):N:6):N:2):N:5,1
SR_kea_v1-4c_Ni_1_Ch_v2-4c_bicyclooctane_Ch_2TrU_Ch_1x1x1,0.16243,0.87838,0.27767,6554.94,1820.11,14.58092,12.21608,18704.47167,,,,248,,36,32,32,C22H4Ni1O4,0.033333333,4,4c_Ni_1_Ch,120,O:C(:O)C#CC#CC1=CC2(C#CC#CC(:O):O)C=C3C#CC#CC4=CC5(C#CC#CC(:O):O)C=C(C#CC#CC6=CC7(C#CC#CC(:O):O)C=C(C#CC#CC8=CC9(C#CC#CC(:O):O)C=C(C#CC#CC(=C2)C31)C8C(C#CC#CC(:O):O)=C9)C6C(C#CC#CC(:O):O)=C7)C4C(C#CC#CC(:O):O)=C5,1
SR_fsn_v1-6c_Ni_1_Ch_v2-4c_1anC_Ch_1B_2CF3_Ch_1x1x2,0.23388,0.52764,1.38242,0,0,6.10818,3.51697,19633.15454,,,,1120,,144,144,96,C32F21H8Ni2O7,0.029411765,6,6c_Ni_1_Ch,132,O:C(:O)C1:C:C(:C(:C:C:1C(F)(F)F)C(C1:C:C(:C(:C:C:1C(F)(F)F)C(:O):O)C(F)(F)F)(C1:C:C(:C(:C:C:1C(F)(F)F)C(:O):O)C(F)(F)F)C1:C:C(:C(:C:C:1C(F)(F)F)C(C1:C:C(:C(:C:C:1C(F)(F)F)C(:O):O)C(F)(F)F)(C1:C:C(:C(:C:C:1C(F)(F)F)C(:O):O)C(F)(F)F)C1:C:C(:C(:C:C:1C(F)(F)F)C(:O):O)C(F)(F)F)C(F)(F)F)C(F)(F)F,1
SR_fsc_v1-4c_porphyrin_Ch_v2-6c_Ni_1_Ch_1B_2NO2_Ch_2x2x1,0.1569,0.73376,0.709503,3155.74,2239.01,9.44997,6.90782,32889.34605,,,,1040,,144,144,96,C28H11N7Ni2O17,0.031746032,6,6c_Ni_1_Ch,"20,102",O:C(:O)C1:C:C(:C(:C:C:1N(:O):O)C(:O):O)N(:O):O___O:C(:O)C1:C:C(:C(:C:C:1N(:O):O)C1:C2:C:C:C(:N:2):C(C2:C:C(:C(:C:C:2N(:O):O)C(:O):O)N(:O):O):C2:C:C:C(:[NH]:2):C(C2:C:C(:C(:C:C:2N(:O):O)C(:O):O)N(:O):O):C2:C:C:C(:N:2):C(C2:C:C(:C(:C:C:2N(:O):O)C(:O):O)N(:O):O):C2:C:C:C:1:[NH]:2)N(:O):O,1
SR_ftf_v1-4c_bicyclooctane_Ch_v2-4c_Cd_1_Ch_1B_2CH3_Ch_ntn_edge_1x1x2,0.10613,0.82148,0.406271,4122.75,1674.95,33.50824,31.2321,161427.7153,,,,3504,,384,384,384,C36Cd1H28O8,0.013888889,4,4c_Cd_1_Ch,,None,1
SR_lcs_v1-4c_In_1_Ch_2TrU_Ch_1x1x1,0.09729,0.9124,0.256536,5548.45,1423.38,17.08803,14.69262,60111.56289,,,,504,,192,192,192,C12In1O8,0.05,4,4c_In_1_Ch,10,O:C(:O)C#CC#CC(:O):O,1
SR_fjh_v1-3c_B_Ch_v2-4c_V_1_Ch_v3-4c_V_1_Ch_2B_2SH_Ch_ntn_edge_1x1x2,0.19089,0.73852,0.651899,2563.71,1671.28,13.28612,11.21501,45971.6908,,,,1392,,216,192,192,C42H22O12S8V3,0.035714286,4,4c_V_1_Ch,42,O:C(:O)C1:C:C(:C:C(:C:1)C1:C:C(S):C(:C:C:1S)C1:C:C(S):C(:C:C:1S)C(:O):O)C(:O):O,1
SR_hey_v1-4c_Cu_1_Ch_v2-3c_B_Ch_v3-3c_B_Ch_1B_4Br_Ch_ntn_edge_1x1x1,0.35136,0.70734,1.13737,1660.02,1888.07,16.2031,4.61166,36269.46441,,,,936,,108,96,96,Br8C22Cu1H4O4,0.026315789,4,4c_Cu_1_Ch,114,O:C(:O)C1:C(Br):C(Br):C(C2:C:C(:C:C(:C:2)C2:C(Br):C(Br):C(C(:O):O):C(Br):C:2Br)C2:C:C(:C:C(:C:2)C2:C:C(:C:C(:C:2)C2:C(Br):C(Br):C(C(:O):O):C(Br):C:2Br)C2:C(Br):C(Br):C(C(:O):O):C(Br):C:2Br)C2:C:C(:C:C(:C:2)C2:C(Br):C(Br):C(C(:O):O):C(Br):C:2Br)C2:C(Br):C(Br):C(C(:O):O):C(Br):C:2Br):C(Br):C:1Br,1
SR_gwg_v1-4c_Cu_1_Ch_v2-3c_Cu_imadazoline_Ch_ntn_edge_1B_4F_Ch_2x2x2,0.19613,0.88144,0.40431,4466.46,1805.84,13.0096,10.27747,96982.12392,,,,1152,,336,320,320,C7Cu2F1H3N3O2,0.125,"3,4","3c_Cu_imadazoline_Ch,4c_Cu_1_Ch","24,10",FC1:C(F):C(C2:C:N:N:C:2):C(F):C(F):C:1C1:C:N:N:C:1___O:C(:O)C1:C:N:N:C:1,1
SR_fvn_v1-4c_Cd_1_Ch_v2-4c_1anC_Ch_ntn_edge_1B_4F_Ch_1x1x3,0.27594,0.58304,1.26833,681.414,864.26,16.08011,14.07774,20836.65084,,,,810,,144,144,144,C24Cd1F12O8,0.022727273,4,4c_Cd_1_Ch,"6,228",O:C(:O)C(:O):O___O:C(:O)C12C3:C(F):C(F):C(:C(F):C:3F)C3(C(:O):O)C4:C(F):C(F):C(:C(F):C:4F)C4(C(:O):O)C5:C(F):C(F):C(:C(F):C:5F)C(C(:O):O)(C5:C(F):C(F):C1:C(F):C:5F)C1:C(F):C(F):C(:C(F):C:1F)C1(C(:O):O)C5:C(F):C(F):C(:C(F):C:5F)C5(C(:O):O)C6:C(F):C(F):C(:C(F):C:6F)C6(C(:O):O)C7:C(F):C(F):C(:C(F):C:7F)C(C(:O):O)(C7:C(F):C(F):C2:C(F):C:7F)C2:C(F):C(F):C(:C(F):C:2F)C(C(:O):O)(C2:C(F):C(F):C(:C(F):C:2F)C(C(:O):O)(C2:C(F):C(F):C4:C(F):C:2F)C2:C(F):C(F):C6:C(F):C:2F)C2:C(F):C(F):C(:C(F):C:2F)C(C(:O):O)(C2:C(F):C(F):C(:C(F):C:2F)C(C(:O):O)(C2:C(F):C(F):C3:C(F):C:2F)C2:C(F):C(F):C5:C(F):C:2F)C2:C(F):C(F):C1:C(F):C:2F,1
SR_jcy_v1-3c_pyrrole_Ch_v2-3c_Cu_imadazoline_Ch_v3-4c_1anC_Ch_2B_2CH3_Ch_1x1x2,0.25937,0.67938,0.60412,2636.72,1592.9,11.85049,8.73479,39626.15122,,,,1728,,24,24,24,C72Cu1H68N3,0.006993007,3,3c_Cu_imadazoline_Ch,,None,1
SR_jph_v1-3c_Cu_imadazoline_Ch_v2-4c_Cu_1_Ch_1DoU_Ch_1B_4H_Ch_1x1x1,0.08657,0.96038,0.118437,5808.04,687.89,39.51275,30.98757,127136.9823,,,,664,,132,128,128,C36Cu7H24N12O4,0.092105263,"3,4","3c_Cu_imadazoline_Ch,4c_Cu_1_Ch","24,14",C1:C:C(:C:C:C:1C1:C:N:N:C:1)C1:C:N:N:C:1___O:C(:O)C=CC1:C:N:N:C:1,1
SR_fua_v1-4c_In_1_Ch_v2-4c_bicyclooctane_Ch_ntn_edge_2x2x1,0.32664,0.50586,1.38564,0,0,7.17857,3.04991,50195.74018,,,,2664,,576,576,576,C20H8In1O8,0.027777778,4,4c_In_1_Ch,,None,1
SR_lcy_v1-6c_Al_1_Ch_2B_4H_Ch_1x1x1,0.3098,0.86486,0.299877,5088.92,1526.05,16.5171,15.32949,18109.52705,,,,328,,60,60,48,Al3C42H24O13,0.037974684,6,6c_Al_1_Ch,26,O:C(:O)C1:C:C:C(:C:C:1)C1:C:C:C(:C:C:1)C(:O):O,1
SR_hof_v1-4c_Ni_1_Ch_v2-3c_triazine_Ch_1B_2TrU_Ch_1x1x1,0.13914,0.95976,0.0838245,8886.6,744.915,33.50291,31.5374,63343.01515,,,,300,,18,16,16,C48H16N6Ni1O4,0.013513514,4,4c_Ni_1_Ch,74,O:C(:O)C#CC1:C:C:C(C#CC2:N:C3C#CC4:C:C:C(C#CC5:N:C(C#CC6:C:C:C(C#CC(:O):O):C:C:6):N:C(C#CC6:C:C:C(C#CC(:N:2):N:3):C:C:6):N:5):C:C:4):C:C:1,1
SR_ftw_v1-4c_porphyrin_Ch_v2-12c_Eu_1_Ch_1B_2SH_Ch_2x2x2,0.12821,0.6751,0.883073,1910.56,1687.16,14.47503,4.37196,62785.61952,,,,2400,,384,384,192,C72Eu3H41N6O16S12,0.020408163,12,12c_Eu_1_Ch,94,O:C(:O)C1:C:C(S):C(:C:C:1S)C1:C2:C:C:C(:N:2):C(C2:C:C(S):C(:C:C:2S)C(:O):O):C2:C:C:C(:[NH]:2):C(C2:C:C(S):C(:C:C:2S)C(:O):O):C2:C:C:C(:N:2):C(C2:C:C(S):C(:C:C:2S)C(:O):O):C2:C:C:C:1:[NH]:2,1
SR_flt_v1-3c_B_Ch_v2-8c_Co_1_Ch_1TrU_Ch_2x2x1,0.20379,0.79188,0.517957,4129.13,2138.71,11.81189,7.55612,29358.45678,,,,680,,160,160,128,C52Co4H12O17,0.049382716,8,8c_Co_1_Ch,40,O:C(:O)C#CC1:C:C(C#CC(:O):O):C:C(C#CC2:C:C(C#CC(:O):O):C:C(C#CC(:O):O):C:2):C:1,1
SR_hyx_v1-3c_Cu_imadazoline_Ch_v2-4c_Cu_1_Ch_v3-4c_B_Ch_1B_2thiophene_Ch_1x1x1,0.04896,0.96062,0.108123,5951.23,643.466,45.43908,23.87296,234378.8468,,,,1112,,132,128,128,C73Cu7H33N12O4S10,0.053030303,"3,4","3c_Cu_imadazoline_Ch,4c_Cu_1_Ch","100,30,26",C1:N:N:C:C:1C1:C:C2:C:C3:S:C(:C:C:3:C:C:2:S:1)C1:C:C(C2:C:C3:C:C4:S:C(:C:C:4:C:C:3:S:2)C2:C:N:N:C:2):C(:C:C:1C1:C:C2:C:C3:S:C(:C:C:3:C:C:2:S:1)C1:C:N:N:C:1)C1:C:C2:C:C3:S:C(:C:C:3:C:C:2:S:1)C1:C:N:N:C:1___C1:N:N:C:C:1C1:C:C2:C:C3:S:C(:C:C:3:C:C:2:S:1)C1:C:N:N:C:1___O:C(:O)C1:C:C2:C:C3:S:C(:C:C:3:C:C:2:S:1)C1:C:N:N:C:1,1
SR_hex_v1-8c_Co_2_Ch_1B_2CH3_Ch_1x1x1,0.17416,0.7363,0.627392,2999.51,1881.87,10.81059,8.3638,29785.24072,,,,936,,160,160,128,C48Cl1Co4H40N24,0.03539823,8,8c_Co_2_Ch,28,CC1:C:C(C2C:N:N:N:2):C(C):C:C:1C1C:N:N:N:1,1
SR_hey_v1-4c_Cu_1_Ch_v2-3c_B_Ch_v3-3c_B_Ch_1B_2OH_Ch_ntn_edge_1x1x1,0.25576,0.78528,0.515083,4688.94,2415.2,17.20373,5.92223,36200.44364,,,,1032,,108,96,96,C22Cu1H12O8,0.023809524,4,4c_Cu_1_Ch,126,O:C(:O)C1:C:C(O):C(:C:C:1O)C1:C:C(:C:C(:C:1)C1:C:C(O):C(:C:C:1O)C(:O):O)C1:C:C(:C:C(:C:1)C1:C:C(:C:C(:C:1)C1:C:C(O):C(:C:C:1O)C(:O):O)C1:C:C(O):C(:C:C:1O)C(:O):O)C1:C:C(:C:C(:C:1)C1:C:C(O):C(:C:C:1O)C(:O):O)C1:C:C(O):C(:C:C:1O)C(:O):O,1
SR_gee_v1-4c_Ni_1_Ch_v2-3c_triazine_Ch_v3-4c_porphyrin_Ch_1B_2NH2_Ch_1x1x1,0.12482,0.86302,0.311808,5330.54,1662.1,27.84803,7.64844,39606.17282,,,,762,,54,48,48,C56H41N20Ni2O8,0.016,4,4c_Ni_1_Ch,250,NC1:C:C(C2:N:C(:N:C(:N:2)C2:C:C(N):C(:C:C:2N)C2:C3:C:C:C(:N:3):C(C3:C:C(N):C(:C:C:3N)C3:N:C(:N:C(:N:3)C3:C:C(N):C(:C:C:3N)C(:O):O)C3:C:C(N):C(:C:C:3N)C(:O):O):C3:C:C:C(:[NH]:3):C(C3:C:C(N):C(:C:C:3N)C3:N:C(:N:C(:N:3)C3:C:C(N):C(:C:C:3N)C(:O):O)C3:C:C(N):C(:C:C:3N)C(:O):O):C3:C:C:C(:N:3):C(C3:C:C(N):C(:C:C:3N)C3:N:C(:N:C(:N:3)C3:C:C(N):C(:C:C:3N)C(:O):O)C3:C:C(N):C(:C:C:3N)C(:O):O):C3:C:C:C:2:[NH]:3)C2:C:C(N):C(:C:C:2N)C(:O):O):C(N):C:C:1C(:O):O,1
SR_fsg_v1-4c_porphyrin_Ch_v2-6c_Zn_1_Ch_1DoU_Ch_ntn_edge_1TrU_Ch_2x2x2,0.30102,0.6953,0.883387,2238.43,1977.4,10.20173,4.76507,55590.36012,,,,2144,,512,512,384,C32H14N4O13Zn4,0.063492063,6,6c_Zn_1_Ch,"6,200",O:C(:O)C(:O):O___O:C(:O)C=CC1:C2:C:C:C(:N:2):C2C#CC3:C4:C:C:C(:N:4):C(C=CC(:O):O):C4:C:C:C(:[NH]:4):C(C#CC4:C5:C:C:C(:N:5):C(C=CC(:O):O):C5:C:C:C(:[NH]:5):C(C#CC5:C6:C:C:C(:N:6):C(C=CC(:O):O):C6:C:C:C(:[NH]:6):C(C#CC(:C6:C:C:C(:N:6):C(C=CC(:O):O):C6:C:C:C:2:[NH]:6):C2:C:C:C:1:[NH]:2):C1:C:C:C(:N:1):C(C=CC(:O):O):C1:C:C:C:5:[NH]:1):C1:C:C:C(:N:1):C(C=CC(:O):O):C1:C:C:C:4:[NH]:1):C1:C:C:C(:N:1):C(C=CC(:O):O):C1:C:C:C:3:[NH]:1,1
SR_kfi_v1-4c_In_1_Ch_1B_2CN_Ch_1x1x1,0.05264,0.88868,0.30393,4691.71,1425.95,38.94606,18.79563,284853.0614,,,,3552,,768,768,768,C20H4In1N4O8,0.027777778,4,4c_In_1_Ch,18,N#CC1:C:C(C(:O):O):C(C#N):C:C:1C(:O):O,1
SR_gal_v1-6c_B_Ch_v2-8c_Co_1_Ch_1B_4H_Ch_1TrU_Ch_1x1x1,0.30706,0.67756,0.850388,1784.01,1517.1,9.71121,8.69525,47065.12888,,,,1848,,480,480,384,C40Co4H16O17,0.054794521,8,8c_Co_1_Ch,"8,84",O:C(:O)C#CC(:O):O___O:C(:O)C1:C:C:C(:C:C:1)C1:C(C2:C:C:C(:C:C:2)C(:O):O):C(C2:C:C:C(:C:C:2)C(:O):O):C(C2:C:C:C(:C:C:2)C(:O):O):C(C2:C:C:C(:C:C:2)C(:O):O):C:1C1:C:C:C(:C:C:1)C(:O):O,1
SR_lcy_v1-6c_Cr_1_Ch_2B_4Br_Ch_1x1x1,0.21655,0.7684,0.997195,1703.64,1698.86,13.87659,11.37849,18558.2426,,,,328,,60,60,48,Br24C42Cr3O13,0.037974684,6,6c_Cr_1_Ch,26,O:C(:O)C1:C(Br):C(Br):C(:C(Br):C:1Br)C1:C(Br):C(Br):C(C(:O):O):C(Br):C:1Br,1
SR_iso_v1-4c_Cd_1_Ch_v2-4c_Cd_1_Ch_v3-4c_bicyclooctane_Ch_v4-4c_1anC_Ch_v5-4c_bicyclooctane_Ch_v6-4c_Cd_1_Ch_11_edges_1x1x2,0.19748,0.56274,1.39829,0,0,6.6788,2.15358,20475.08418,,,,1024,,384,384,384,C29Cd3H8O24,0.049180328,4,4c_Cd_1_Ch,"6,49",O:C(:O)C(:O):O___O:C(:O)C1=CC2(C=C(C(:O):O)C1C(=C2)C(:O):O)C(C1=CC2(C=C(C(:O):O)C1C(=C2)C(:O):O)C(:O):O)(C(:O):O)C(:O):O,1
SR_ets_v1-3c_B_Ch_v2-3c_Cu_imadazoline_Ch_2B_4F_Ch_1x1x1,0.01072,0.9729,0.0763891,5717.71,436.771,48.29775,45.30085,1049774.203,,,,3216,,288,288,288,C35Cu3F16H7N6,0.046875,3,3c_Cu_imadazoline_Ch,"90,34",FC1:C(F):C(:C(F):C(F):C:1C1:C:N:N:C:1)C1:C(F):C(F):C(C2:C:C(:C:C(:C:2)C2:C(F):C(F):C(:C(F):C:2F)C2:C(F):C(F):C(C3:C:N:N:C:3):C(F):C:2F)C2:C(F):C(F):C(:C(F):C:2F)C2:C(F):C(F):C(C3:C:N:N:C:3):C(F):C:2F):C(F):C:1F___FC1:C(F):C(:C(F):C(F):C:1C1:C:N:N:C:1)C1:C(F):C(F):C(C2:C:N:N:C:2):C(F):C:1F,1
SR_fjh_v1-3c_B_Ch_v2-4c_porphyrin_Ch_v3-4c_Cu_1_Ch_ntn_edge_2B_1DoU_Ch_1x1x2,0.42536,0.81644,0.412826,4013.01,1656.68,19.13929,17.09937,61976.5463,,,,1552,,144,128,128,C54Cu2H31N2O8,0.021052632,4,4c_Cu_1_Ch,190,O:C(:O)C1:C:C(:C:C(:C:1)C1:C:C:C(C=CC2:C:C:C(:C:C:2)C2:C3:C:C:C(:N:3):C(C3:C:C:C(C=CC4:C:C:C(:C:C:4)C4:C:C(:C:C(:C:4)C(:O):O)C(:O):O):C:C:3):C3:C:C:C(:[NH]:3):C(C3:C:C:C(C=CC4:C:C:C(:C:C:4)C4:C:C(:C:C(:C:4)C(:O):O)C(:O):O):C:C:3):C3:C:C:C(:N:3):C(C3:C:C:C(C=CC4:C:C:C(:C:C:4)C4:C:C(:C:C(:C:4)C(:O):O)C(:O):O):C:C:3):C3:C:C:C:2:[NH]:3):C:C:1)C(:O):O,1
SR_itv_v1-4c_In_1_Ch_v2-4c_In_1_Ch_ntn_edge_1B_2CH3_Ch_2x2x3,0.24335,0.46734,1.64276,0,0,3.46251,2.29735,52516.79601,,,,3408,,1152,1152,1152,C28H16In3O24,0.044117647,4,4c_In_1_Ch,"22,6",CC1:C:C(C(:O):O):C(C):C:C:1C(:O):O___O:C(:O)C(:O):O,1
SR_hwx_v1-6c_Fe_1_Ch_v2-3c_triazine_Ch_1B_4F_Ch_1x1x2,0.24656,0.80258,0.573273,3422.91,1962.26,13.46341,9.20122,34577.12252,,,,752,,120,120,96,C48F24Fe3N6O13,0.032967033,6,6c_Fe_1_Ch,45,O:C(:O)C1:C(F):C(F):C(C2:N:C(:N:C(:N:2)C2:C(F):C(F):C(C(:O):O):C(F):C:2F)C2:C(F):C(F):C(C(:O):O):C(F):C:2F):C(F):C:1F,1
SR_hbr_v1-8c_Co_1_Ch_v2-8c_Co_2_Ch_1B_2NH2_Ch_1x1x2,0.16025,0.7169,0.738556,1781.19,1315.51,20.98126,11.44376,52102.05655,,,,1674,,360,360,288,C104Cl1Co12H80N48O34,0.04494382,8,"8c_Co_1_Ch,8c_Co_2_Ch","20,23",NC1:C:C(C(:O):O):C(N):C:C:1C(:O):O___NC1:C:C(C(:O):O):C(N):C:C:1C1C:N:N:N:1,1
SR_hcpd_v1-8c_Tb_1_Ch_v2-4c_1anC_Ch_ntn_edge_1B_4F_Ch_2x2x2,0.20157,0.45358,1.73146,0,0,4.42976,2.32307,32380.28785,,,,1568,,256,256,256,C26F14O8Tb1,0.020833333,8,8c_Tb_1_Ch,"6,90",O:C(:O)C(:O):O___O:C(:O)C1:C(F):C(F):C(:C(F):C:1F)C(C1:C(F):C(F):C(C(:O):O):C(F):C:1F)(C1:C(F):C(F):C(C(:O):O):C(F):C:1F)C1:C(F):C(F):C(:C(F):C:1F)C(C1:C(F):C(F):C(C(:O):O):C(F):C:1F)(C1:C(F):C(F):C(C(:O):O):C(F):C:1F)C1:C(F):C(F):C(C(:O):O):C(F):C:1F,1
SR_kea_v1-4c_Cu_1_Ch_v2-4c_1anC_Ch_1B_2OH_Ch_2x2x2,0.26301,0.64064,0.898823,1790.32,1609.18,7.92369,5.96992,57691.28062,,,,2816,,288,256,256,C21Cu1H12O10,0.023255814,4,4c_Cu_1_Ch,344,O:C(:O)C1:C:C(O):C(:C:C:1O)C1(C2:C:C(O):C(:C:C:2O)C(:O):O)C2:C:C(O):C(:C:C:2O)C(C2:C:C(O):C(:C:C:2O)C(:O):O)(C2:C:C(O):C(:C:C:2O)C(:O):O)C2:C:C(O):C(:C:C:2O)C(C2:C:C(O):C(:C:C:2O)C(:O):O)(C2:C:C(O):C(:C:C:2O)C(:O):O)C2:C:C(O):C(:C:C:2O)C(C2:C:C(O):C(:C:C:2O)C(:O):O)(C2:C:C(O):C(:C:C:2O)C(:O):O)C2:C:C(O):C(:C:C:2O)C(C2:C:C(O):C(:C:C:2O)C(:O):O)(C2:C:C(O):C(:C:C:2O)C(:O):O)C2:C:C(O):C(:C:C:2O)C(C2:C:C(O):C(:C:C:2O)C(:O):O)(C2:C:C(O):C(:C:C:2O)C(:O):O)C2:C:C(O):C(:C:C:2O)C(C2:C:C(O):C(:C:C:2O)C(:O):O)(C2:C:C(O):C(:C:C:2O)C(:O):O)C2:C:C(O):C(:C:C:2O)C(C2:C:C(O):C(:C:C:2O)C(:O):O)(C2:C:C(O):C(:C:C:2O)C(:O):O)C2:C:C(O):C1:C:C:2O,1
SR_ilc_v1-8c_Co_1_Ch_1B_2NO2_Ch_2x2x2,0.37036,0.30954,1.98125,0,0,4.14018,1.54659,58045.44666,,,,4080,,960,960,768,C32Co4H8N8O33,0.049382716,8,8c_Co_1_Ch,20,O:C(:O)C1:C:C(:C(:C:C:1N(:O):O)C(:O):O)N(:O):O,1
SR_knc_v1-4c_porphyrin_Ch_v2-8c_Co_2_Ch_v3-8c_Co_2_Ch_1TrU_Ch_2x2x1,0.49409,0.75112,0.590019,4039.7,2383.5,11.02874,7.7651,72609.98806,,,,2192,,320,320,256,C72Cl1Co4H28N32,0.030075188,8,8c_Co_2_Ch,66,C(#CC1:C2:C:C:C(:N:2):C(C#CC2C:N:N:N:2):C2:C:C:C(:[NH]:2):C(C#CC2C:N:N:N:2):C2:C:C:C(:N:2):C(C#CC2C:N:N:N:2):C2:C:C:C:1:[NH]:2)C1C:N:N:N:1,1
SR_isq_v1-4c_bicyclooctane_Ch_v2-4c_In_1_Ch_1B_4H_Ch_ntn_edge_2x2x2,0.17965,0.78472,0.494643,4045.28,2000.97,13.30249,6.6313,85456.35388,,,,2464,,256,256,256,C44H24In1O8,0.013157895,4,4c_In_1_Ch,152,O:C(:O)C1:C:C:C(:C:C:1)C1=CC2(C=C3C4=CC5(C=C(C6=CC7(C=C(C8=CC9(C=C(C(=C2)C31)C8C(=C9)C1:C:C:C(:C:C:1)C(:O):O)C1:C:C:C(:C:C:1)C(:O):O)C6C(=C7)C1:C:C:C(:C:C:1)C(:O):O)C1:C:C:C(:C:C:1)C(:O):O)C4C(=C5)C1:C:C:C(:C:C:1)C(:O):O)C1:C:C:C(:C:C:1)C(:O):O)C1:C:C:C(:C:C:1)C(:O):O,1
SR_gme_v1-4c_Cd_1_Ch_1B_2Br_Ch_1x1x1,0.03593,0.87036,0.468624,3439.03,1611.61,21.59754,18.67518,76691.47439,,,,792,,192,192,192,Br4C16Cd1H4O8,0.03125,4,4c_Cd_1_Ch,16,O:C(:O)C1:C:C(Br):C(:C:C:1Br)C(:O):O,1
SR_fmz_v1-3c_pyrrole_Ch_v2-6c_Al_1_Ch_ntn_edge_2x2x1,2.04404,0.32242,1.80227,0,0,4.10059,1.51489,37378.68233,,,,2592,,1080,1080,864,Al3C14H4N2O13,0.090909091,6,6c_Al_1_Ch,16,O:C(:O)C1:C:C:C(C(:O):O):N:1C(:O):O,1
SR_gcc_v1-4c_bicyclooctane_Ch_v2-4c_In_1_Ch_1TrU_Ch_1DoU_Ch_1x1x2,0.07451,0.86108,0.364095,4007.12,1458.97,27.68969,24.7695,62433.27457,,,,936,,192,192,192,C20H10In1O8,0.026315789,4,4c_In_1_Ch,"10,168",O:C(:O)C=CC(:O):O___O:C(:O)C=CC1=CC23C#CC45C=C(C#CC6=CC7(C#CC89C=C(C#CC%10=CC%11(C#CC%12%13C=C(C#CC(=C2)C1C(C=CC(:O):O)=C3)C(C(C=CC(:O):O)=C%12)C(C=CC(:O):O)=C%13)C=C(C=CC(:O):O)C%10C(C=CC(:O):O)=C%11)C(C(C=CC(:O):O)=C8)C(C=CC(:O):O)=C9)C=C(C=CC(:O):O)C6C(C=CC(:O):O)=C7)C(C(C=CC(:O):O)=C4)C(C=CC(:O):O)=C5,1
SR_lcye_v1-6c_Zr_1_Ch_2B_2OH_Ch_1x1x1,0.06799,0.86992,0.362575,3563.28,1291.95,25.5947,20.60877,99042.91637,,,,1656,,576,576,144,C21H23O22Zr3,0.045454545,6,6c_Zr_1_Ch,30,O:C(:O)C1:C:C(O):C(:C:C:1O)C1:C:C(O):C(:C:C:1O)C(:O):O,1
SR_fsc_v1-4c_Ni_1_Ch_v2-6c_Ni_1_Ch_2B_2NH2_Ch_2x2x1,0.11343,0.84564,0.384321,5003.57,1922.98,14.22862,9.95822,65979.29848,,,,1440,,216,208,160,C35H31N10Ni3O11,0.034482759,"4,6","4c_Ni_1_Ch,6c_Ni_1_Ch",34,NC1:C:C(:C(N):C:C:1C(:O):O)C1:C:C(N):C(:C:C:1N)C(:O):O,1