name,k,VF,density,ASA_grav,ASA_vol,LPD,PLD,volume,,,,N_atoms,,N_metal_containing_bonds,N_metal_nonmetal_bonds,N_metal_linker_bonds,formula,metal_nonmetal_ratio,metal_node_connectivity,metal_node_name,N_atoms_per_linker,linker_SMILES,N_ccs
SR_ceg_v1-3c_B_Ch_v2-6c_Ni_1_Ch_v3-4c_B_Ch_1B_2thiophene_Ch_1x1x1,0.10045,0.9121,0.206917,5772.79,1194.49,26.68672,18.66965,42112.64464,,,,392,,18,18,12,C120H49Ni2O7S18,0.010309278,6,6c_Ni_1_Ch,384,O:C(:O)C1:C:C2:C:C3:S:C(:C:C:3:C:C:2:S:1)C1:C:C2:C:C(:C:1)C1:C:C3:C:C4:S:C(:C:C:4:C:C:3:S:1)C1:C:C3C4:C:C5:C:C6:S:C(:C:C:6:C:C:5:S:4)C4:C:C(:C:C(:C:4)C4:C:C5:C:C6:S:C(:C:C:6:C:C:5:S:4)C4:C:C5C6:C:C7:C:C8:S:C(:C:C:8:C:C:7:S:6)C6:C:C(:C:C(:C:6)C6:C:C7:C:C8:S:C(:C:C:8:C:C:7:S:6)C6:C:C(C7:C:C8:C:C9:S:C2:C:C:9:C:C:8:S:7):C2:C:C:6C6:C:C7:C:C8:S:C(:C:C:8:C:C:7:S:6)C6:C:C(:C:C(:C:6)C6:C:C7:C:C8:S:C(:C:C:8:C:C:7:S:6)C:3:C:C:1C1:C:C3:C:C6:S:C(:C:C:6:C:C:3:S:1)C1:C:C(:C:C(:C:1)C1:C:C3:C:C6:S:C(:C:C:6:C:C:3:S:1)C:5:C:C:4C1:C:C3:C:C4:S:C(:C:C:4:C:C:3:S:1)C1:C:C(:C:C(:C:1)C1:C:C3:C:C4:S:C2:C:C:4:C:C:3:S:1)C1:C:C2:C:C3:S:C(:C:C:3:C:C:2:S:1)C(:O):O)C1:C:C2:C:C3:S:C(:C:C:3:C:C:2:S:1)C(:O):O)C1:C:C2:C:C3:S:C(:C:C:3:C:C:2:S:1)C(:O):O)C1:C:C2:C:C3:S:C(:C:C:3:C:C:2:S:1)C(:O):O)C1:C:C2:C:C3:S:C(:C:C:3:C:C:2:S:1)C(:O):O,1
SR_can_v1-4c_Cd_1_Ch_1B_4H_Ch_1x1x2,0.0736,0.89684,0.272381,5265.04,1434.1,24.09699,21.98246,75101.97161,,,,792,,192,192,192,C16Cd1H8O8,0.03125,4,4c_Cd_1_Ch,16,O:C(:O)C1:C:C:C(:C:C:1)C(:O):O,1
SR_cdj_v1-3c_triazine_Ch_v2-6c_CdZn_1_Ch_ntn_edge_2x2x2,0.17304,0.70062,1.18691,1818.63,2158.56,10.85145,4.70441,82092.26993,,,,2624,,1024,1024,768,C15Cd3N9O13Zn1,0.108108108,6,6c_CdZn_1_Ch,24,O:C(:O)C1:N:C(:N:C(:N:1)C1:N:C(:N:C(:N:1)C(:O):O)C(:O):O)C(:O):O,1
SR_cev_v1-4c_ethene_Ch_v2-4c_ethene_Ch_v3-4c_Ni_1_Ch_ntn_edge_1B_2Br_Ch_2x2x1,0.49193,0.46188,1.9374,0,0,6.90298,2.82811,31676.34467,,,,1440,,216,192,192,Br4C17H4Ni1O4,0.034482759,4,4c_Ni_1_Ch,,None,1
SR_ceu_v1-4c_B_Ch_v2-6c_Ni_1_Ch_v3-4c_Ni_1_Ch_ntn_edge_2B_4F_Ch_2x2x1,0.32963,0.4664,1.56273,0,0,9.37441,2.55677,61922.6852,,,,3056,,504,480,384,C102F48H8Ni7O26,0.038043478,"4,6","4c_Ni_1_Ch,6c_Ni_1_Ch",60,O:C(:O)C1:C:C(:C(:C:C:1C(:O):O)C1:C(F):C(F):C(:C(F):C:1F)C1:C(F):C(F):C(C(:O):O):C(F):C:1F)C1:C(F):C(F):C(:C(F):C:1F)C1:C(F):C(F):C(C(:O):O):C(F):C:1F,1
SR_ddc_v1-3c_Cu_imadazoline_Ch_v2-4c_bicyclooctane_Ch_1B_4H_Ch_ntn_edge_1x1x1,0.07715,0.89736,0.25875,5151.32,1332.9,29.30512,20.05806,39393.79148,,,,576,,48,48,48,C13Cu1H8N2,0.043478261,3,3c_Cu_imadazoline_Ch,184,C1=C2C3=CC4(C=C(C5=CC6(C=C(C7=CC8(C=C(C9=CC1(C=C(C1:C:C:C(:C:C:1)C1:C:N:N:C:1)C29)C1:C:C:C(:C:C:1)C1:C:N:N:C:1)C7C(=C8)C1:C:C:C(:C:C:1)C1:C:N:N:C:1)C1:C:C:C(:C:C:1)C1:C:N:N:C:1)C5C(=C6)C1:C:C:C(:C:C:1)C1:C:N:N:C:1)C1:C:C:C(:C:C:1)C1:C:N:N:C:1)C3C(=C4)C1:C:C:C(:C:C:1)C1:C:N:N:C:1)C1:C:C:C(:C:C:1)C1:C:N:N:C:1,1
SR_brl_v1-4c_Ni_1_Ch_v2-4c_1anC_Ch_1DoU_Ch_2TrU_Ch_1x1x3,0.34847,0.74232,0.660022,3452.49,2278.72,10.31529,7.341,13513.9712,,,,360,,81,72,72,C11H4Ni1O4,0.052631579,4,4c_Ni_1_Ch,114,O:C(:O)C=CC1(C#CC#CC(C#CC#CC(C#CC#CC(C#CC#CC(C#CC#CC(C#CC#C1)(C=CC(:O):O)C=CC(:O):O)(C=CC(:O):O)C=CC(:O):O)(C=CC(:O):O)C=CC(:O):O)(C=CC(:O):O)C=CC(:O):O)(C=CC(:O):O)C=CC(:O):O)C=CC(:O):O,1
SR_ceu_v1-4c_B_Ch_v2-6c_Zn_1_Ch_v3-4c_porphyrin_Ch_ntn_edge_1B_2CF3_Ch_2x2x1,0.15315,0.66542,0.896037,1895.41,1698.35,9.89347,7.34976,86090.4226,,,,3104,,256,256,192,C102F36H33N6O13Zn4,0.021052632,6,6c_Zn_1_Ch,378,O:C(:O)C1:C:C(:C(:C:C:1C(F)(F)F)C1:C:C2:C(:C:C:1C1:C:C(:C(:C:C:1C(F)(F)F)C(:O):O)C(F)(F)F)C1:C3:C:C:C(:N:3):C3C4:C:C(:C(:C:C:4C4:C5:C:C:C(:N:5):C5C6:C:C(:C(:C:C:6C6:C7:C:C:C(:N:7):C2:C2:C:C:C(:[NH]:2):C2C7:C:C(:C(:C:C:7C(:C7:C:C:C(:N:7):C(C7:C:C(:C(:C:C:7C(:C7:C:C:C(:N:7):C(C7:C:C(:C(:C:C:7C(:C7:C:C:C:2:N:7):C2:C:C:C:6:[NH]:2)C2:C:C(:C(:C:C:2C(F)(F)F)C(:O):O)C(F)(F)F)C2:C:C(:C(:C:C:2C(F)(F)F)C(:O):O)C(F)(F)F):C2:C:C:C:5:[NH]:2):C2:C:C:C:4:[NH]:2)C2:C:C(:C(:C:C:2C(F)(F)F)C(:O):O)C(F)(F)F)C2:C:C(:C(:C:C:2C(F)(F)F)C(:O):O)C(F)(F)F):C2:C:C:C:3:[NH]:2):C2:C:C:C:1:[NH]:2)C1:C:C(:C(:C:C:1C(F)(F)F)C(:O):O)C(F)(F)F)C1:C:C(:C(:C:C:1C(F)(F)F)C(:O):O)C(F)(F)F)C1:C:C(:C(:C:C:1C(F)(F)F)C(:O):O)C(F)(F)F)C1:C:C(:C(:C:C:1C(F)(F)F)C(:O):O)C(F)(F)F)C1:C:C(:C(:C:C:1C(F)(F)F)C(:O):O)C(F)(F)F)C1:C:C(:C(:C:C:1C(F)(F)F)C(:O):O)C(F)(F)F)C(F)(F)F,1
SR_ceu_v1-4c_B_Ch_v2-6c_Ni_1_Ch_v3-4c_Ni_1_Ch_ntn_edge_2B_2NH2_Ch_2x2x1,0.37583,0.48666,1.25027,0,0,9.095,2.38247,62347.73454,,,,3824,,504,480,384,C102H80N24Ni7O26,0.030172414,"4,6","4c_Ni_1_Ch,6c_Ni_1_Ch",76,NC1:C:C(:C(N):C:C:1C(:O):O)C1:C:C(N):C(:C:C:1N)C1:C:C(C(:O):O):C(:C:C:1C1:C:C(N):C(:C:C:1N)C1:C:C(N):C(:C:C:1N)C(:O):O)C(:O):O,1
SR_ces_v1-4c_B_Ch_v2-6c_bicyclooctane_Ch_v3-4c_Ni_1_Ch_2B_4F_Ch_ntn_edge_2x2x2,0.20728,0.74516,0.697151,2924.91,2039.1,11.26422,9.767,111693.8201,,,,2800,,216,192,192,C104F48H8Ni3O12,0.01744186,4,4c_Ni_1_Ch,,None,1
SR_crs_v1-6c_CdZn_1_Ch_2B_4Br_Ch_1x1x1,0.03381,0.84724,0.71036,1791.97,1272.94,24.29232,17.53539,113430.7738,,,,1328,,256,256,192,Br24C42Cd3O13Zn1,0.050632911,6,6c_CdZn_1_Ch,26,O:C(:O)C1:C(Br):C(Br):C(:C(Br):C:1Br)C1:C(Br):C(Br):C(C(:O):O):C(Br):C:1Br,1
SR_cut_v1-8c_Co_1_Ch_v2-3c_B_Ch_2B_2F_Ch_1x1x2,0.06823,0.90774,0.227058,5015.06,1138.71,30.41897,25.82263,46263.17144,,,,530,,40,40,32,C152Co4F40H52O17,0.01532567,8,8c_Co_1_Ch,130,O:C(:O)C1:C:C(F):C(:C:C:1F)C1:C:C(F):C(:C:C:1F)C1:C:C(:C:C(:C:1)C1:C:C(F):C(:C:C:1F)C1:C:C(F):C(:C:C:1F)C1:C:C(:C:C(:C:1)C1:C:C(F):C(:C:C:1F)C1:C:C(F):C(:C:C:1F)C(:O):O)C1:C:C(F):C(:C:C:1F)C1:C:C(F):C(:C:C:1F)C(:O):O)C1:C:C(F):C(:C:C:1F)C1:C:C(F):C(:C:C:1F)C(:O):O,1
SR_cut_v1-8c_Co_2_Ch_v2-3c_pyrrole_Ch_1B_2Br_Ch_2x2x2,0.25372,0.76884,0.755829,2324.54,1756.95,14.99406,14.0661,65504.69893,,,,1448,,160,160,128,Br20C92Cl1Co4H36N28,0.02259887,8,8c_Co_2_Ch,88,BrC1:C:C(:C(Br):C:C:1C1C:N:N:N:1)C1:C:C:C(C2:C:C(Br):C(:C:C:2Br)C2:C:C:C(C3:C:C(Br):C(:C:C:3Br)C3C:N:N:N:3):N:2C2:C:C(Br):C(:C:C:2Br)C2C:N:N:N:2):N:1C1:C:C(Br):C(:C:C:1Br)C1C:N:N:N:1,1
SR_cep_v1-6c_Zn_1_Ch_v2-6c_Zn_1_Ch_v3-3c_pyrrole_Ch_ntn_edge_2x2x2,0.18382,0.58046,1.46411,0,0,6.12886,3.25729,19585.38628,,,,888,,384,384,288,C14H4N2O13Zn4,0.121212121,6,6c_Zn_1_Ch,16,O:C(:O)C1:C:C:C(C(:O):O):N:1C(:O):O,1
SR_brl_v1-4c_Cu_1_Ch_v2-4c_bicyclooctane_Ch_1B_4H_Ch_1x1x2,0.18599,0.82286,0.397259,4856.46,1929.27,14.47563,12.1285,27336.57156,,,,588,,54,48,48,C28Cu1H16O4,0.020833333,4,4c_Cu_1_Ch,288,O:C(:O)C1:C:C:C(:C:C:1)C1=CC23C=C(C4:C:C:C(:C:C:4)C4=CC5(C=C(C6:C:C:C(:C:C:6)C(:O):O)C4C(=C5)C4:C:C:C(:C:C:4)C(:O):O)C4:C:C:C(:C:C:4)C4=CC5(C=C(C6:C:C:C(:C:C:6)C(:O):O)C4C(=C5)C4:C:C:C(:C:C:4)C(:O):O)C4:C:C:C(:C:C:4)C45C=C(C6:C:C:C(:C:C:6)C(:O):O)C(C(=C4)C4:C:C:C(:C:C:4)C(:O):O)C(=C5)C4:C:C:C(:C:C:4)C45C=C(C6:C:C:C(:C:C:6)C(:O):O)C(C(=C4)C4:C:C:C(:C:C:4)C(:O):O)C(=C5)C4:C:C:C(:C:C:4)C45C=C(C6:C:C:C(:C:C:6)C(:O):O)C(C(=C4)C4:C:C:C(:C:C:4)C(:O):O)C(=C5)C4:C:C:C2:C:C:4)C1C(=C3)C1:C:C:C(:C:C:1)C(:O):O,1
SR_ced_v1-3c_triazine_Ch_v2-12c_Mn_1_Ch_2B_1DoU_Ch_ntn_edge_1x1x1,0.1485,0.8514,0.324487,5337.86,1732.07,18.54495,13.42105,21402.03948,,,,371,,42,42,18,C198H120Mn8N18O27,0.022038567,12,12c_Mn_1_Ch,120,OC(:O)C1:C:C:C(C=CC2:C:C:C(:C:C:2)C2:N:C(:N:C(:N:2)C2:N:C(:N:C(:N:2)C2:C:C:C(C=CC3:C:C:C(:C:C:3)C(:O):O):C:C:2)C2:C:C:C(C=CC3:C:C:C(:C:C:3)C(O):O):C:C:2)C2:C:C:C(C=CC3:C:C:C(:C:C:3)C(:O):O):C:C:2):C:C:1,1
SR_ced_v1-3c_triazine_Ch_v2-12c_Mn_1_Ch_2B_2F_Ch_2x2x1,0.13049,0.82034,0.456697,4179.24,1908.65,16.51933,10.30079,81606.42988,,,,1532,,168,168,72,C210F60H60Mn8N18O27,0.021333333,12,12c_Mn_1_Ch,124,OC(:O)C1:C:C(F):C(:C:C:1F)C1:C:C(F):C(:C:C:1F)C1:N:C(:N:C(:N:1)C1:C:C(F):C(:C:C:1F)C1:C:C(F):C(:C:C:1F)C1:N:C(:N:C(:N:1)C1:C:C(F):C(:C:C:1F)C1:C:C(F):C(:C:C:1F)C(:O):O)C1:C:C(F):C(:C:C:1F)C1:C:C(F):C(:C:C:1F)C(O):O)C1:C:C(F):C(:C:C:1F)C1:C:C(F):C(:C:C:1F)C(:O):O,1
SR_cew_v1-4c_porphyrin_Ch_v2-8c_Zr_1_Ch_v3-4c_porphyrin_Ch_ntn_edge_1x1x2,0.30913,0.67144,0.814275,1598.1,1301.3,19.02456,16.24142,42586.05948,,,,1596,,288,288,96,C64H38N12O16Zr3,0.023076923,8,8c_Zr_1_Ch,,None,1
SR_btv_v1-5c_bicyclooctane_Ch_v2-6c_CdZn_1_Ch_ntn_edge_1B_2NH2_Ch_2x2x2,0.32593,0.70056,0.875581,2175.89,1905.17,8.43103,7.05077,43499.30989,,,,1776,,256,256,192,C52Cd3H30N12O13Zn1,0.037383178,6,6c_CdZn_1_Ch,"400,6",NC1:C:C2:C(N):C:C:1N1:C:C3:C(:C:1)C14C5:C:C(N):C(:C:C:5N)C56C7:C:N(:C:C:7C7(C8:C:C(N):C(:C:C:8N)C89C%10:C:N(:C:C:%10C%10(C%11:C:C(N):C(:C:C:%11N)C%11%12C%13:C:N(:C:C:%13C(C%13:C:C(N):C(:C:C:%13N)C3(C3:C:N(:C:C:31)C(:O):O)C1:C:N(:C:C:14)C(:O):O)(C1:C:N(:C:C:1%11)C(:O):O)C1:C:N(:C:C:1%12)C1:C:C(N):C(:C:C:1N)N1:C:C3:C(:C:1)C14C%11:C:C(N):C(:C:C:%11N)C%11%12C%13:C:N(:C:C:%13C(C%13:C:C(N):C(:C:C:%13N)C%13%14C%15:C:N(:C:C:%15C(C%15:C:C(N):C(:C:C:%15N)C%15%16C%17:C:N(:C:C:%17C(C%17:C:C(N):C(:C:C:%17N)C3(C3:C:N(:C:C:31)C(:O):O)C1:C:N(:C:C:14)C(:O):O)(C1:C:N(:C:C:1%15)C(:O):O)C1:C:N2:C:C:1%16)C(:O):O)(C1:C:N(:C:C:1%13)C(:O):O)C1:C:N(:C:C:1%14)C1:C:C(N):C(:C:C:1N)N1:C:C5:C7:C:1)C(:O):O)(C1:C:N(:C:C:1%11)C(:O):O)C1:C:N(:C:C:1%12)C1:C:C(N):C(:C:C:1N)N1:C:C%10:C8:C:1)C(:O):O)C(:O):O)C1:C:N(:C:C:19)C(:O):O)C(:O):O)C1:C:N(:C:C:16)C(:O):O)C(:O):O___O:C(:O)C(:O):O,1
SR_csq_v1-4c_ethene_Ch_v2-8c_Co_1_Ch_1DoU_Ch_1x1x2,0.26689,0.67072,0.913457,1233.97,1127.18,15.53899,13.74167,10991.69503,,,,390,,120,120,96,C28Co4H16O17,0.06557377,8,8c_Co_1_Ch,30,O:C(:O)C=CC(C=CC(:O):O)=C(C=CC(:O):O)C=CC(:O):O,1
SR_cet_v1-3c_B_Ch_v2-6c_Zn_1_Ch_v3-6c_bicyclooctane_Ch_1B_2indole_Ch_ntn_edge_2x2x1,0.34794,0.658,0.807872,1416.99,1144.75,8.32823,6.18573,40445.14094,,,,1640,,128,128,96,C118H58N12O13Zn4,0.019900498,6,6c_Zn_1_Ch,,None,1
SR_ced_v1-3c_triazine_Ch_v2-12c_Mn_1_Ch_3B_fused_8H_Ch_2x2x1,0.18753,0.82386,0.388927,4787.57,1862.01,16.46833,10.51764,81530.35978,,,,1652,,168,168,72,C240H120Mn8N18O27,0.019753086,12,12c_Mn_1_Ch,134,OC(:O)C1:C:C:C2:C(:C:C:C3:C:C(:C:C:C:3:2)C2:N:C(:N:C(:N:2)C2:C:C:C3:C(:C:C:C4:C:C(:C:C:C:4:3)C3:N:C(:N:C(:N:3)C3:C:C:C4:C(:C:C:C5:C:C(:C:C:C:5:4)C(:O):O):C:3)C3:C:C:C4:C(:C:C:C5:C:C(:C:C:C:5:4)C(O):O):C:3):C:2)C2:C:C:C3:C(:C:C:C4:C:C(:C:C:C:4:3)C(:O):O):C:2):C:1,1
SR_ceh_v1-3c_pyrrole_Ch_v2-6c_Mg_1_Ch_v3-4c_1anC_Ch_ntn_edge_1B_2DoU_Ch_1x1x2,0.30068,0.73412,0.5211,4294.58,2237.9,11.86805,4.70505,19342.44185,,,,618,,60,60,24,C53H38Mg2N2O8,0.01980198,6,6c_Mg_1_Ch,,None,1
SR_cdz_v1-4c_Cu_1_Ch_v2-4c_Cu_1_Ch_1DoU_Ch_2x1x2,1.48179,0.74632,0.810273,3256.25,2638.45,9.00639,5.51252,34946.48702,,,,1056,,432,384,384,C4Cu1H2O4,0.1,4,4c_Cu_1_Ch,10,O:C(:O)C=CC(:O):O,1
SR_cdz_v1-4c_V_1_Ch_v2-4c_porphyrin_Ch_1DoU_Ch_2x1x2,0.84437,0.72758,0.616995,3001.97,1852.2,11.29598,8.69126,45080.16123,,,,1696,,144,128,128,C28H16N4O4V1,0.019230769,4,4c_V_1_Ch,"10,376,376",O:C(:O)C=CC(:O):O___O:C(:O)C=CC1:C2:C:C:C(:N:2):C2C=CC3:C4:C:C:C(:N:4):C4C=CC5:C6:C:C:C(:N:6):C6C=CC7:C8:C:C:C(:N:8):C(C=CC(:O):O):C8:C:C:C(:[NH]:8):C8C=CC9:C%10:C:C:C(:N:%10):C(C=CC(:O):O):C%10:C:C:C(:[NH]:%10):C%10C=CC%11:C%12:C:C:C(:N:%12):C(C=CC(:O):O):C%12:C:C:C(:[NH]:%12):C(C=CC(:C%12:C:C:C(:N:%12):C(C=CC(:O):O):C%12:C:C:C:6:[NH]:%12):C6:C:C:C:5:[NH]:6):C5:C:C:C(:N:5):C(C=CC(:C5:C:C:C(:N:5):C(C=CC5:C6:C:C:C(:N:6):C(C=CC(:O):O):C6:C:C:C(:[NH]:6):C(C=CC6:C%12:C:C:C(:N:%12):C(C=CC(:O):O):C%12:C:C:C(:[NH]:%12):C(C=CC(:C%12:C:C:C(:N:%12):C(C=CC(:O):O):C%12:C:C:C:3:[NH]:%12):C3:C:C:C:4:[NH]:3):C3:C:C:C(:N:3):C(C=CC(:C3:C:C:C:8:N:3):C3:C:C:C:7:[NH]:3):C3:C:C:C:6:[NH]:3):C3:C:C:C(:N:3):C(C=CC(:C3:C:C:C:%10:N:3):C3:C:C:C:9:[NH]:3):C3:C:C:C:5:[NH]:3):C3:C:C:C:1:[NH]:3):C1:C:C:C:2:[NH]:1):C1:C:C:C:%11:[NH]:1___O:C(:O)C=CC1:C2:C:C:C(:N:2):C2C=CC3:C4:C:C:C(:N:4):C4C=CC5:C6:C:C:C(:N:6):C6C=CC7:C8:C:C:C(:N:8):C8C=CC(:C9:C:C:C(:N:9):C(C=CC9:C%10:C:C:C(:N:%10):C(C=CC(:O):O):C%10:C:C:C(:[NH]:%10):C%10C=CC%11:C%12:C:C:C(:N:%12):C(C=CC(:O):O):C%12:C:C:C(:[NH]:%12):C(C=CC(:C%12:C:C:C(:N:%12):C(C=CC(:O):O):C%12:C:C:C:3:[NH]:%12):C3:C:C:C:4:[NH]:3):C3:C:C:C(:N:3):C(C=CC3:C4:C:C:C(:N:4):C(C=CC4:C%12:C:C:C(:N:%12):C(C=CC(:C%12:C:C:C:%10:N:%12):C%10:C:C:C:9:[NH]:%10):C9:C:C:C(:[NH]:9):C(C=CC(:C9:C:C:C(:N:9):C(C=CC(:O):O):C9:C:C:C:7:[NH]:9):C7:C:C:C:8:[NH]:7):C7:C:C:C(:N:7):C(C=CC(:O):O):C7:C:C:C:4:[NH]:7):C4:C:C:C(:[NH]:4):C(C=CC(:O):O):C4:C:C:C(:N:4):C(C=CC(:C4:C:C:C(:N:4):C(C=CC(:O):O):C4:C:C:C:6:[NH]:4):C4:C:C:C:5:[NH]:4):C4:C:C:C:3:[NH]:4):C3:C:C:C:%11:[NH]:3):C3:C:C:C:1:[NH]:3):C1:C:C:C:2:[NH]:1,1
SR_buh_v1-4c_1anC_Ch_v2-12c_Zr_1_Ch_v3-12c_Zr_1_Ch_2B_2SH_Ch_1x1x1,0.13211,0.68018,0.787517,2329.36,1834.41,13.37486,5.00205,77762.08893,,,,2760,,384,384,192,C159H100O32S48Zr6,0.017699115,12,12c_Zr_1_Ch,109,O:C(:O)C1:C:C(S):C(:C:C:1S)C1:C:C(S):C(:C:C:1S)C(C1:C:C(S):C(:C:C:1S)C1:C:C(S):C(:C:C:1S)C(:O):O)(C1:C:C(S):C(:C:C:1S)C1:C:C(S):C(:C:C:1S)C(:O):O)C1:C:C(S):C(:C:C:1S)C1:C:C(S):C(:C:C:1S)C(:O):O,1
SR_cds_v1-4c_Ni_1_Ch_1B_2CH3_Ch_2x2x2,0.39292,0.74674,0.644618,3903.22,2516.09,9.9991,5.63776,82719.9275,,,,2944,,576,512,512,C10H8Ni1O4,0.045454545,4,4c_Ni_1_Ch,22,CC1:C:C(C(:O):O):C(C):C:C:1C(:O):O,1
SR_buh_v1-4c_bicyclooctane_Ch_v2-12c_Eu_1_Ch_v3-12c_Eu_1_Ch_1B_4Br_Ch_1x1x1,0.11563,0.51614,2.099,0,0,8.5651,3.1583,41616.4409,,,,1680,,384,384,192,Br24C54Eu3H8O16,0.029411765,12,12c_Eu_1_Ch,64,O:C(:O)C1:C(Br):C(Br):C(C2=CC3(C=C(C4:C(Br):C(Br):C(C(:O):O):C(Br):C:4Br)C2C(=C3)C2:C(Br):C(Br):C(C(:O):O):C(Br):C:2Br)C2:C(Br):C(Br):C(C(:O):O):C(Br):C:2Br):C(Br):C:1Br,1
SR_cdz_v1-4c_V_1_Ch_v2-4c_V_1_Ch_1DoU_Ch_ntn_edge_1B_4H_Ch_2x1x2,2.34288,0.67564,0.913663,1951.4,1782.92,8.47747,7.05183,32399.1653,,,,1280,,432,384,384,C17H8O12V3,0.081081081,4,4c_V_1_Ch,"6,16,10",O:C(:O)C(:O):O___O:C(:O)C1:C:C:C(:C:C:1)C(:O):O___O:C(:O)C=CC(:O):O,1
SR_cev_v1-4c_ethene_Ch_v2-4c_Ni_1_Ch_v3-4c_Ni_1_Ch_ntn_edge_1B_2OH_Ch_2x2x1,0.22522,0.66416,0.946417,1732.6,1639.76,11.55488,5.01813,52851.57531,,,,1920,,432,384,384,C9H4Ni1O6,0.052631579,4,4c_Ni_1_Ch,38,O:C(:O)C(=C(C1:C:C(O):C(:C:C:1O)C(:O):O)C1:C:C(O):C(:C:C:1O)C(:O):O)C(:O):O,1
SR_cev_v1-4c_ethene_Ch_v2-4c_ethene_Ch_v3-4c_Cu_1_Ch_ntn_edge_1B_2SH_Ch_2x2x1,0.35546,0.47658,1.35385,484.955,656.555,7.3744,3.8867,32050.68126,,,,1632,,216,192,192,C17Cu1H8O4S4,0.03030303,4,4c_Cu_1_Ch,,None,1
SR_cep_v1-6c_CdZn_1_Ch_v2-6c_CdZn_1_Ch_v3-3c_pyrrole_Ch_ntn_edge_2x2x2,0.14625,0.5836,1.7295,0,0,6.38861,3.02322,20074.59538,,,,888,,384,384,288,C14Cd3H4N2O13Zn1,0.121212121,6,6c_CdZn_1_Ch,16,O:C(:O)C1:C:C:C(C(:O):O):N:1C(:O):O,1
SR_ceh_v1-3c_Cu_imadazoline_Ch_v2-6c_B_Ch_v3-4c_bicyclooctane_Ch_2B_4Br_Ch_1x1x2,0.03581,0.83376,0.709308,2679.19,1900.37,15.805,13.74754,90414.66226,,,,1092,,72,72,72,Br24C50Cu3H8N6,0.034090909,3,3c_Cu_imadazoline_Ch,"168,120",BrC1:C(Br):C(:C(Br):C(Br):C:1C1:C:N:N:C:1)C1:C(Br):C(Br):C(:C(Br):C:1Br)C1:C(C2:C(Br):C(Br):C(:C(Br):C:2Br)C2:C(Br):C(Br):C(C3:C:N:N:C:3):C(Br):C:2Br):C(C2:C(Br):C(Br):C(:C(Br):C:2Br)C2:C(Br):C(Br):C(C3:C:N:N:C:3):C(Br):C:2Br):C(C2:C(Br):C(Br):C(:C(Br):C:2Br)C2:C(Br):C(Br):C(C3:C:N:N:C:3):C(Br):C:2Br):C(C2:C(Br):C(Br):C(:C(Br):C:2Br)C2:C(Br):C(Br):C(C3:C:N:N:C:3):C(Br):C:2Br):C:1C1:C(Br):C(Br):C(:C(Br):C:1Br)C1:C(Br):C(Br):C(C2:C:N:N:C:2):C(Br):C:1Br___BrC1:C(Br):C(:C(Br):C(Br):C:1C1=CC2(C=C(C3:C(Br):C(Br):C(:C(Br):C:3Br)C3:C(Br):C(Br):C(C4:C:N:N:C:4):C(Br):C:3Br)C1C(=C2)C1:C(Br):C(Br):C(:C(Br):C:1Br)C1:C(Br):C(Br):C(C2:C:N:N:C:2):C(Br):C:1Br)C1:C(Br):C(Br):C(:C(Br):C:1Br)C1:C(Br):C(Br):C(C2:C:N:N:C:2):C(Br):C:1Br)C1:C(Br):C(Br):C(C2:C:N:N:C:2):C(Br):C:1Br,1
SR_buh_v1-4c_bicyclooctane_Ch_v2-12c_Zr_1_Ch_v3-12c_Zr_1_Ch_2B_2Br_Ch_1x1x1,0.09517,0.73702,0.931245,2135.34,1988.53,15.04851,6.62628,101597.9659,,,,2640,,384,384,192,Br24C90H32O16Zr3,0.018518519,12,12c_Zr_1_Ch,104,O:C(:O)C1:C:C(Br):C(:C:C:1Br)C1:C:C(Br):C(:C:C:1Br)C1=CC2(C=C(C3:C:C(Br):C(:C:C:3Br)C3:C:C(Br):C(:C:C:3Br)C(:O):O)C1C(=C2)C1:C:C(Br):C(:C:C:1Br)C1:C:C(Br):C(:C:C:1Br)C(:O):O)C1:C:C(Br):C(:C:C:1Br)C1:C:C(Br):C(:C:C:1Br)C(:O):O,1
SR_cex_v1-4c_ethene_Ch_v2-12c_Mn_1_Ch_v3-4c_ethene_Ch_1TrU_Ch_1B_4H_Ch_1x1x1,0.38576,0.62812,0.884839,1556.26,1377.04,11.96449,8.823,10548.82666,,,,418,,84,84,36,C126H48Mn8O27,0.039800995,12,12c_Mn_1_Ch,396,OC(:O)C1:C:C:C(:C:C:1)C1C#CC2C#CC(=C(C#CC3C#CC(=C(C#CC4C#CC(=C(C#CC5C#CC(=C(C#CC6C#CC(=C(C#CC(C#CC=1C1:C:C:C(:C:C:1)C(O):O)=C1C#CC(=C(C#CC=2C#CC(=C(C#CC=3C#CC(=C(C#CC=4C#CC(=C(C#CC=5C#CC(=C(C#CC=6C#CC(=C(C#C1)C1:C:C:C(:C:C:1)C(:O):O)C1:C:C:C(:C:C:1)C(:O):O)C1:C:C:C(:C:C:1)C(O):O)C1:C:C:C(:C:C:1)C(O):O)C1:C:C:C(:C:C:1)C(:O):O)C1:C:C:C(:C:C:1)C(:O):O)C1:C:C:C(:C:C:1)C(O):O)C1:C:C:C(:C:C:1)C(O):O)C1:C:C:C(:C:C:1)C(:O):O)C1:C:C:C(:C:C:1)C(:O):O)C1:C:C:C(:C:C:1)C(O):O)C1:C:C:C(:C:C:1)C(O):O)C1:C:C:C(:C:C:1)C(:O):O)C1:C:C:C(:C:C:1)C(:O):O)C1:C:C:C(:C:C:1)C(O):O)C1:C:C:C(:C:C:1)C(O):O)C1:C:C:C(:C:C:1)C(:O):O)C1:C:C:C(:C:C:1)C(:O):O)C1:C:C:C(:C:C:1)C(O):O)C1:C:C:C(:C:C:1)C(O):O)C1:C:C:C(:C:C:1)C(:O):O)C1:C:C:C(:C:C:1)C(:O):O,1
SR_crs_v1-6c_CdZn_1_Ch_2B_2F_Ch_1x1x1,0.06476,0.90034,0.318366,4125.61,1313.46,27.24315,19.76367,113090.9764,,,,1328,,256,256,192,C42Cd3F12H12O13Zn1,0.050632911,6,6c_CdZn_1_Ch,26,O:C(:O)C1:C:C(F):C(:C:C:1F)C1:C:C(F):C(:C:C:1F)C(:O):O,1
SR_csq_v1-4c_ethene_Ch_v2-8c_Co_1_Ch_1B_2OH_Ch_1x1x2,0.20884,0.676,0.833463,1385.47,1154.74,17.3473,15.5419,20971.95549,,,,774,,120,120,96,C60Co4H32O33,0.032,8,8c_Co_1_Ch,62,O:C(:O)C1:C:C(O):C(:C:C:1O)C(=C(C1:C:C(O):C(:C:C:1O)C(:O):O)C1:C:C(O):C(:C:C:1O)C(:O):O)C1:C:C(O):C(:C:C:1O)C(:O):O,1
SR_crsd_v1-8c_Co_2_Ch_v2-4c_bicyclooctane_Ch_1B_4CN_Ch_ntn_edge_1x1x1,0.22007,0.60016,0.972628,1150,1118.52,7.737,3.59458,22022.099,,,,968,,160,160,128,C64Cl1Co4H12N40,0.034188034,8,8c_Co_2_Ch,"12,92",C1:N:N:N:C1C1C:N:N:N:1___N#CC1:C(C#N):C(C2C:N:N:N:2):C(C#N):C(C#N):C:1C1=CC2(C=C(C3:C(C#N):C(C#N):C(C4C:N:N:N:4):C(C#N):C:3C#N)C1C(=C2)C1:C(C#N):C(C#N):C(C2C:N:N:N:2):C(C#N):C:1C#N)C1:C(C#N):C(C#N):C(C2C:N:N:N:2):C(C#N):C:1C#N,1
SR_cet_v1-3c_B_Ch_v2-6c_Ni_1_Ch_v3-6c_bicyclooctane_Ch_2B_1TrU_Ch_1x1x1,0.08604,0.93246,0.135502,7528.67,1020.15,26.92032,22.27768,124974.6003,,,,992,,36,36,24,C155H84Ni2O7,0.008130081,6,6c_Ni_1_Ch,488,O:C(:O)C1:C:C:C(C#CC2:C:C:C(:C:C:2)C2:C:C3:C:C(:C:2)C2:C:C:C(C#CC4:C:C:C(:C:C:4)C4=C5C6:C:C:C(C#CC7:C:C:C(:C:C:7)C7:C:C(:C:C(:C:7)C7:C:C:C(C#CC8:C:C:C(:C:C:8)C(:O):O):C:C:7)C7:C:C:C(C#CC8:C:C:C(:C:C:8)C8=C(C9:C:C:C(C#CC%10:C:C:C3:C:C:%10):C:C:9)C3C9=C%10C%11:C:C:C(C#CC%12:C:C:C(:C:C:%12)C%12:C:C(:C:C(:C:%12)C%12:C:C:C(C#CC%13:C:C:C(:C:C:%13)C(:O):O):C:C:%12)C%12:C:C:C(C#CC%13:C:C:C(:C:C:%13)C%13=C(C%14:C:C:C(C#CC%15:C:C:C(:C:C:%15)C%15:C:C(:C:C(:C:%15)C%15:C:C:C(C#CC%16:C:C:C(:C:C:%16)C(:O):O):C:C:%15)C%15:C:C:C(C#CC%16:C:C:C9:C:C:%16):C:C:%15):C:C:%14)C4C4=C(C9:C:C:C(C#CC%14:C:C:C(:C:C:%14)C%14:C:C(:C:C(:C:%14)C%14:C:C:C(C#CC%15:C:C:C(:C:C:%15)C(:O):O):C:C:%14)C%14:C:C:C(C#CC%15:C:C:C(:C:C:%15)C(=C3C3:C:C:C(C#CC%15:C:C:C(:C:C:%15)C%15:C:C(:C:C(:C:%15)C%15:C:C:C(C#CC%16:C:C:C(:C:C:%16)C(:O):O):C:C:%15)C%15:C:C:C(C#CC%16:C:C:C4:C:C:%16):C:C:%15):C:C:3)C8%10):C:C:%14):C:C:9)C5%13):C:C:%12):C:C:%11):C:C:7):C:C:6):C:C:2):C:C:1,1
SR_cdm_v1-4c_Ni_1_Ch_v2-4c_Ni_1_Ch_ntn_edge_4B_fused_8H_Ch_2x2x1,3.86854,0.53548,1.36306,215.484,293.717,6.81178,5.69945,49946.57078,,,,2880,,864,768,768,C22H8Ni3O12,0.071428571,4,4c_Ni_1_Ch,"6,30",O:C(:O)C(:O):O___O:C(:O)C1:C:C2:C:C:C3:C:C(:C:C4:C:C:C(:C:1):C:2:C:3:4)C(:O):O,1
SR_ceu_v1-4c_B_Ch_v2-6c_Ni_1_Ch_v3-4c_Ni_1_Ch_ntn_edge_1B_2F_Ch_2x2x1,0.30006,0.51914,1.3782,0,0,7.89511,2.76331,42527.35821,,,,2096,,504,480,384,C66F12H20Ni7O26,0.056451613,"4,6","4c_Ni_1_Ch,6c_Ni_1_Ch",40,O:C(:O)C1:C:C(F):C(:C:C:1F)C1:C:C(C(:O):O):C(:C:C:1C1:C:C(F):C(:C:C:1F)C(:O):O)C(:O):O,1
SR_crsd_v1-8c_Zr_1_Ch_v2-4c_1anC_Ch_ntn_edge_1B_4Br_Ch_2x2x1,0.23244,0.38602,2.44704,0,0,4.75453,2.17663,59727.54711,,,,3296,,1536,1536,512,Br16C33H16O32Zr6,0.06185567,8,8c_Zr_1_Ch,"6,53",O:C(:O)C(:O):O___O:C(:O)C1:C(Br):C(Br):C(:C(Br):C:1Br)C(C1:C(Br):C(Br):C(C(:O):O):C(Br):C:1Br)(C1:C(Br):C(Br):C(C(:O):O):C(Br):C:1Br)C1:C(Br):C(Br):C(C(:O):O):C(Br):C:1Br,1
SR_cdle_v1-4c_Cu_1_Ch_v2-4c_1anC_Ch_v3-4c_Cu_1_Ch_1B_4F_Ch_2x2x1,0.23469,0.7808,0.680789,3151.64,2145.6,10.38554,8.14906,41092.55215,,,,984,,216,192,192,C61Cu6F32O24,0.051282051,4,4c_Cu_1_Ch,"53,16",O:C(:O)C1:C(F):C(F):C(:C(F):C:1F)C(C1:C(F):C(F):C(C(:O):O):C(F):C:1F)(C1:C(F):C(F):C(C(:O):O):C(F):C:1F)C1:C(F):C(F):C(C(:O):O):C(F):C:1F___O:C(:O)C1:C(F):C(F):C(C(:O):O):C(F):C:1F,1