name,k,VF,density,ASA_grav,ASA_vol,LPD,PLD,volume,,,,N_atoms,,N_metal_containing_bonds,N_metal_nonmetal_bonds,N_metal_linker_bonds,formula,metal_nonmetal_ratio,metal_node_connectivity,metal_node_name,N_atoms_per_linker,linker_SMILES,N_ccs
SR_dnl_v1-4c_Ni_1_Ch_v2-6c_Ni_1_Ch_v3-3c_B_Ch_1B_4F_Ch_ntn_edge_1x1x1,0.19813,0.63162,1.15966,940.443,1090.59,10.719,7.40714,56233.98043,,,,2336,,720,672,576,C33F12H4Ni5O19,0.073529412,"4,6","4c_Ni_1_Ch,6c_Ni_1_Ch","6,48",O:C(:O)C(:O):O___O:C(:O)C1:C(F):C(F):C(C2:C:C(:C:C(:C:2)C2:C(F):C(F):C(C(:O):O):C(F):C:2F)C2:C(F):C(F):C(C(:O):O):C(F):C:2F):C(F):C:1F,1
SR_epq_v1-4c_B_Ch_v2-6c_Mg_1_Ch_v3-3c_triazine_Ch_1B_2Br_Ch_1x1x1,0.15562,0.82406,0.543688,2532.59,1376.94,31.50242,13.11305,80980.23036,,,,1440,,360,360,144,Br6C28H10Mg3N1O12,0.052631579,6,6c_Mg_1_Ch,"60,45",O:C(:O)C1:C:C(Br):C(:C:C:1Br)C1:C:C(C2:C:C(Br):C(:C:C:2Br)C(:O):O):C(:C:C:1C1:C:C(Br):C(:C:C:1Br)C(:O):O)C1:C:C(Br):C(:C:C:1Br)C(:O):O___O:C(:O)C1:C:C(Br):C(:C:C:1Br)C1:N:C(:N:C(:N:1)C1:C:C(Br):C(:C:C:1Br)C(:O):O)C1:C:C(Br):C(:C:C:1Br)C(:O):O,1
SR_epa_v1-6c_Mg_1_Ch_v2-6c_Mg_1_Ch_v3-4c_B_Ch_2B_2NH2_Ch_1x1x1,0.11158,0.84966,0.315796,4963.75,1567.53,25.02991,11.92407,123107.6515,,,,2160,,360,360,144,C47H41Mg4N12O16,0.034482759,6,6c_Mg_1_Ch,"34,132",NC1:C:C(:C(N):C:C:1C(:O):O)C1:C:C(N):C(:C:C:1N)C(:O):O___NC1:C:C(:C(N):C:C:1C(:O):O)C1:C:C(N):C(:C:C:1N)C1:C:C(C2:C:C(N):C(:C:C:2N)C2:C:C(N):C(:C:C:2N)C(:O):O):C(:C:C:1C1:C:C(N):C(:C:C:1N)C1:C:C(N):C(:C:C:1N)C(:O):O)C1:C:C(N):C(:C:C:1N)C1:C:C(N):C(:C:C:1N)C(:O):O,1
SR_eft_v1-4c_porphyrin_Ch_v2-8c_Mn_1_Ch_v3-3c_B_Ch_1B_2NH2_Ch_ntn_edge_2x2x3,0.2573,0.77952,0.519987,3891.02,2023.28,12.9453,9.4015,70156.80064,,,,2052,,240,240,192,C76Cl1H46Mn4N44,0.023952096,8,8c_Mn_1_Ch,166,NC1:C:C(:C(N):C:C:1C1:C:C(:C:C(:C:1)C1:N:N:N:N:1)C1:N:N:N:N:1)C1:C2:C:C:C(:N:2):C(C2:C:C(N):C(:C:C:2N)C2:C:C(:C:C(:C:2)C2:N:N:N:N:2)C2:N:N:N:N:2):C2:C:C:C(:[NH]:2):C(C2:C:C(N):C(:C:C:2N)C2:C:C(:C:C(:C:2)C2:N:N:N:N:2)C2:N:N:N:N:2):C2:C:C:C(:N:2):C(C2:C:C(N):C(:C:C:2N)C2:C:C(:C:C(:C:2)C2:N:N:N:N:2)C2:N:N:N:N:2):C2:C:C:C:1:[NH]:2,1
SR_dnu_v1-4c_ethene_Ch_v2-8c_Mn_1_Ch_v3-4c_ethene_Ch_1TrU_Ch_1x1x1,0.69508,0.66444,0.830044,2092.25,1736.66,12.31194,5.80568,31880.67781,,,,1068,,240,240,192,C52Cl1Mn4N32,0.047058824,8,8c_Mn_1_Ch,,None,1
SR_eci_v1-8c_Co_2_Ch_1B_4CN_Ch_1x1x1,0.33909,0.68174,0.77927,2194.68,1710.25,10.89671,6.69885,25787.36914,,,,872,,160,160,128,C56Cl1Co4H8N40,0.038095238,8,8c_Co_2_Ch,26,N#CC1:C(C#N):C(C2C:N:N:N:2):C(C#N):C(C#N):C:1C1C:N:N:N:1,1
SR_eft_v1-4c_porphyrin_Ch_v2-8c_Co_2_Ch_v3-3c_B_Ch_1B_2NH2_Ch_1x1x2,0.12211,0.83718,0.354718,4716.94,1673.18,15.07089,12.56968,25170.50988,,,,582,,40,40,32,C132Cl1Co4H102N52,0.013937282,8,8c_Co_2_Ch,286,NC1:C:C(C2:C:C(:C:C(:C:2)C2:C:C(N):C(:C:C:2N)C2:C3:C:C:C(:N:3):C(C3:C:C(N):C(:C:C:3N)C3:C:C(:C:C(:C:3)C3:C:C(N):C(:C:C:3N)C3C:N:N:N:3)C3:C:C(N):C(:C:C:3N)C3C:N:N:N:3):C3:C:C:C(:[NH]:3):C(C3:C:C(N):C(:C:C:3N)C3:C:C(:C:C(:C:3)C3:C:C(N):C(:C:C:3N)C3C:N:N:N:3)C3:C:C(N):C(:C:C:3N)C3C:N:N:N:3):C3:C:C:C(:N:3):C(C3:C:C(N):C(:C:C:3N)C3:C:C(:C:C(:C:3)C3:C:C(N):C(:C:C:3N)C3C:N:N:N:3)C3:C:C(N):C(:C:C:3N)C3C:N:N:N:3):C3:C:C:C:2:[NH]:3)C2:C:C(N):C(:C:C:2N)C2C:N:N:N:2):C(N):C:C:1C1C:N:N:N:1,1
SR_dmf_v1-4c_In_1_Ch_v2-3c_B_Ch_ntn_edge_1B_2Br_Ch_1x3x2,0.26317,0.61886,1.1866,838.118,994.508,5.12392,4.00398,25639.62881,,,,1068,,96,96,96,Br8C52H20In1O8,0.011363636,4,4c_In_1_Ch,264,O:C(:O)C1:C:C2:C:C(:C:1)C1:C:C(Br):C(:C:C:1Br)C1:C:C(:C:C(:C:1)C1:C:C(Br):C(:C:C:1Br)C1:C:C(:C:C(:C:1)C1:C:C(Br):C(:C:C:1Br)C1:C:C(:C:C(:C:1)C1:C:C(Br):C(:C:C:1Br)C1:C:C(:C:C(:C:1)C1:C:C(Br):C(:C:C:1Br)C1:C:C(:C:C(:C:1)C1:C:C(Br):C(:C:C:1Br)C1:C:C(:C:C(:C:1)C1:C:C(Br):C(:C:C:1Br)C1:C:C(:C:C(:C:1)C1:C:C(Br):C(:C:C:1Br)C1:C:C(:C:C(:C:1)C1:C:C(Br):C(:C:C:1Br)C1:C:C(:C:C(:C:1)C1:C:C(Br):C(:C:C:1Br)C1:C:C(:C:C(:C:1)C1:C:C(Br):C(:C:C:1Br)C1:C:C(:C:C(:C:1)C1:C:C(Br):C2:C:C:1Br)C(:O):O)C(:O):O)C(:O):O)C(:O):O)C(:O):O)C(:O):O)C(:O):O)C(:O):O)C(:O):O)C(:O):O)C(:O):O,1
SR_dnr_v1-4c_pyrene_Ch_v2-4c_Cu_1_Ch_v3-3c_triazine_Ch_1B_2CF3_Ch_ntn_edge_1x1x3,0.13692,0.821,0.495313,2290.69,1134.61,33.8018,33.124,69189.06219,,,,1242,,162,144,144,C34Cu2F12H7N6O8,0.029850746,4,4c_Cu_1_Ch,134,O:C(:O)C1:N:C(:N:C(:N:1)C1:C:C(:C(:C:C:1C(F)(F)F)C1:C:C(C2:C:C(:C(:C:C:2C(F)(F)F)C2:N:C(:N:C(:N:2)C(:O):O)C(:O):O)C(F)(F)F):C2:C:C:C3:C(:C:C(C4:C:C(:C(:C:C:4C(F)(F)F)C4:N:C(:N:C(:N:4)C(:O):O)C(:O):O)C(F)(F)F):C4:C:C:C:1:C:2:C:4:3)C1:C:C(:C(:C:C:1C(F)(F)F)C1:N:C(:N:C(:N:1)C(:O):O)C(:O):O)C(F)(F)F)C(F)(F)F)C(:O):O,1
SR_dnj_v1-8c_Co_1_Ch_v2-6c_B_Ch_v3-3c_pyrrole_Ch_1B_2F_Ch_1x1x1,0.10667,0.767,0.605057,2221.46,1344.11,20.87739,13.22179,37110.18707,,,,1086,,120,120,96,C100Co4F24H32N4O17,0.02259887,8,8c_Co_1_Ch,264,O:C(:O)C1:C:C(F):C(:C:C:1F)C1:C:C:C(C2:C:C(F):C(:C:C:2F)C(:O):O):N:1C1:C:C(F):C(:C:C:1F)C1:C(C2:C:C(F):C(:C:C:2F)N2:C(:C:C:C:2C2:C:C(F):C(:C:C:2F)C(:O):O)C2:C:C(F):C(:C:C:2F)C(:O):O):C(C2:C:C(F):C(:C:C:2F)N2:C(:C:C:C:2C2:C:C(F):C(:C:C:2F)C(:O):O)C2:C:C(F):C(:C:C:2F)C(:O):O):C(C2:C:C(F):C(:C:C:2F)N2:C(:C:C:C:2C2:C:C(F):C(:C:C:2F)C(:O):O)C2:C:C(F):C(:C:C:2F)C(:O):O):C(C2:C:C(F):C(:C:C:2F)N2:C(:C:C:C:2C2:C:C(F):C(:C:C:2F)C(:O):O)C2:C:C(F):C(:C:C:2F)C(:O):O):C:1C1:C:C(F):C(:C:C:1F)N1:C(:C:C:C:1C1:C:C(F):C(:C:C:1F)C(:O):O)C1:C:C(F):C(:C:C:1F)C(:O):O,1
SR_epy_v1-3c_B_Ch_v2-6c_Mg_1_Ch_v3-4c_ethene_Ch_1B_2SH_Ch_ntn_edge_1x1x1,0.11093,0.82332,0.393173,3773.4,1483.6,21.6921,14.07345,194986.921,,,,4032,,480,480,192,C21H12Mg1O4S4,0.024390244,6,6c_Mg_1_Ch,,None,1
SR_epo_v1-3c_triazine_Ch_v2-6c_Ni_1_Ch_v3-4c_Ni_1_Ch_1B_2CH3_Ch_1x1x1,0.10286,0.83642,0.382073,4152.22,1586.45,22.81031,13.85974,66980.79087,,,,1588,,198,192,144,C180H148N18Ni11O40,0.028497409,"4,6","4c_Ni_1_Ch,6c_Ni_1_Ch",63,CC1:C:C(C2:N:C(:N:C(:N:2)C2:C:C(C):C(:C:C:2C)C(:O):O)C2:C:C(C):C(:C:C:2C)C(:O):O):C(C):C:C:1C(:O):O,1
SR_ecf_v1-8c_Mn_1_Ch_1DoU_Ch_2x2x2,0.41976,0.7857,0.59321,3197.21,1896.62,17.79229,7.82994,140994.6683,,,,2928,,960,960,768,C16Cl1H8Mn4N32,0.070175439,8,8c_Mn_1_Ch,14,C(=CC1:N:N:N:N:1)C1:N:N:N:N:1,1
SR_dpa_v1-3c_B_Ch_v2-3c_B_Ch_v3-6c_Mg_1_Ch_1B_2CN_Ch_1x1x1,0.38424,0.726,0.579562,4006.02,2321.74,9.216,5.35355,96976.01475,,,,3072,,480,480,192,C18H6Mg1N3O4,0.032258065,6,6c_Mg_1_Ch,162,N#CC1:C:C(C2:C:C(:C:C(:C:2)C2:C:C(C#N):C(:C:C:2C#N)C2:C:C(:C:C(:C:2)C2:C:C(C#N):C(:C:C:2C#N)C2:C:C(:C:C(:C:2)C2:C:C(C#N):C(:C:C:2C#N)C(:O):O)C2:C:C(C#N):C(:C:C:2C#N)C(:O):O)C2:C:C(C#N):C(:C:C:2C#N)C2:C:C(:C:C(:C:2)C2:C:C(C#N):C(:C:C:2C#N)C(:O):O)C2:C:C(C#N):C(:C:C:2C#N)C(:O):O)C2:C:C(C#N):C(:C:C:2C#N)C(:O):O):C(C#N):C:C:1C(:O):O,1
SR_eft_v1-4c_porphyrin_Ch_v2-8c_Co_2_Ch_v3-3c_B_Ch_1B_4F_Ch_1x1x2,0.19361,0.8382,0.420513,3925.14,1650.57,16.28764,12.46503,25205.29708,,,,486,,40,40,32,C132Cl1Co4F48H30N28,0.016736402,8,8c_Co_2_Ch,238,FC1:C(F):C(C2:C:C(:C:C(:C:2)C2:C(F):C(F):C(:C(F):C:2F)C2:C3:C:C:C(:N:3):C(C3:C(F):C(F):C(C4:C:C(:C:C(:C:4)C4:C(F):C(F):C(C5C:N:N:N:5):C(F):C:4F)C4:C(F):C(F):C(C5C:N:N:N:5):C(F):C:4F):C(F):C:3F):C3:C:C:C(:[NH]:3):C(C3:C(F):C(F):C(C4:C:C(:C:C(:C:4)C4:C(F):C(F):C(C5C:N:N:N:5):C(F):C:4F)C4:C(F):C(F):C(C5C:N:N:N:5):C(F):C:4F):C(F):C:3F):C3:C:C:C(:N:3):C(C3:C(F):C(F):C(C4:C:C(:C:C(:C:4)C4:C(F):C(F):C(C5C:N:N:N:5):C(F):C:4F)C4:C(F):C(F):C(C5C:N:N:N:5):C(F):C:4F):C(F):C:3F):C3:C:C:C:2:[NH]:3)C2:C(F):C(F):C(C3C:N:N:N:3):C(F):C:2F):C(F):C(F):C:1C1C:N:N:N:1,1
SR_dnj_v1-8c_Co_1_Ch_v2-6c_B_Ch_v3-3c_triazine_Ch_1B_2NO2_Ch_1x1x1,0.11349,0.77544,0.576379,2168.8,1250.05,22.89341,15.90251,51119.74005,,,,1350,,120,120,96,C96Co4H24N36O65,0.018099548,8,8c_Co_1_Ch,330,O:C(:O)C1:C:C(:C(:C:C:1N(:O):O)C1:N:C(:N:C(:N:1)C1:C:C(:C(:C:C:1N(:O):O)C1:C(C2:C:C(:C(:C:C:2N(:O):O)C2:N:C(:N:C(:N:2)C2:C:C(:C(:C:C:2N(:O):O)C(:O):O)N(:O):O)C2:C:C(:C(:C:C:2N(:O):O)C(:O):O)N(:O):O)N(:O):O):C(C2:C:C(:C(:C:C:2N(:O):O)C2:N:C(:N:C(:N:2)C2:C:C(:C(:C:C:2N(:O):O)C(:O):O)N(:O):O)C2:C:C(:C(:C:C:2N(:O):O)C(:O):O)N(:O):O)N(:O):O):C(C2:C:C(:C(:C:C:2N(:O):O)C2:N:C(:N:C(:N:2)C2:C:C(:C(:C:C:2N(:O):O)C(:O):O)N(:O):O)C2:C:C(:C(:C:C:2N(:O):O)C(:O):O)N(:O):O)N(:O):O):C(C2:C:C(:C(:C:C:2N(:O):O)C2:N:C(:N:C(:N:2)C2:C:C(:C(:C:C:2N(:O):O)C(:O):O)N(:O):O)C2:C:C(:C(:C:C:2N(:O):O)C(:O):O)N(:O):O)N(:O):O):C:1C1:C:C(:C(:C:C:1N(:O):O)C1:N:C(:N:C(:N:1)C1:C:C(:C(:C:C:1N(:O):O)C(:O):O)N(:O):O)C1:C:C(:C(:C:C:1N(:O):O)C(:O):O)N(:O):O)N(:O):O)N(:O):O)C1:C:C(:C(:C:C:1N(:O):O)C(:O):O)N(:O):O)N(:O):O,1
SR_dnj_v1-8c_Co_1_Ch_v2-6c_B_Ch_v3-3c_pyrrole_Ch_1B_2CF3_Ch_ntn_edge_1x1x1,0.20207,0.5858,1.14779,1109.45,1273.42,12.86473,8.409,22669.11159,,,,1134,,120,120,96,C92Co4F48H24N4O17,0.021621622,8,8c_Co_1_Ch,276,O:C(:O)C1:C:C(:C(:C:C:1C(F)(F)F)C1:C:C:C(C2:C:C(:C(:C:C:2C(F)(F)F)C(:O):O)C(F)(F)F):N:1C1:C(:C(:C(:C(:C:1N1:C(:C:C:C:1C1:C:C(:C(:C:C:1C(F)(F)F)C(:O):O)C(F)(F)F)C1:C:C(:C(:C:C:1C(F)(F)F)C(:O):O)C(F)(F)F)N1:C(:C:C:C:1C1:C:C(:C(:C:C:1C(F)(F)F)C(:O):O)C(F)(F)F)C1:C:C(:C(:C:C:1C(F)(F)F)C(:O):O)C(F)(F)F)N1:C(:C:C:C:1C1:C:C(:C(:C:C:1C(F)(F)F)C(:O):O)C(F)(F)F)C1:C:C(:C(:C:C:1C(F)(F)F)C(:O):O)C(F)(F)F)N1:C(:C:C:C:1C1:C:C(:C(:C:C:1C(F)(F)F)C(:O):O)C(F)(F)F)C1:C:C(:C(:C:C:1C(F)(F)F)C(:O):O)C(F)(F)F)N1:C(:C:C:C:1C1:C:C(:C(:C:C:1C(F)(F)F)C(:O):O)C(F)(F)F)C1:C:C(:C(:C:C:1C(F)(F)F)C(:O):O)C(F)(F)F)C(F)(F)F,1
SR_dnl_v1-4c_porphyrin_Ch_v2-6c_CdZn_1_Ch_v3-3c_triazine_Ch_1B_2OH_Ch_1x1x1,0.13094,0.80698,0.473634,4291.81,2032.75,16.53576,9.41325,171375.4754,,,,4496,,256,256,192,C144Cd3H78N18O37Zn1,0.014440433,6,6c_CdZn_1_Ch,,None,1
SR_dpa_v1-3c_B_Ch_v2-3c_B_Ch_v3-6c_Mg_1_Ch_1B_4F_Ch_ntn_edge_1x1x1,0.47017,0.61776,0.948398,733.956,696.083,6.84919,3.78533,52350.52891,,,,2304,,480,480,192,C12F4H3Mg1O4,0.043478261,6,6c_Mg_1_Ch,114,O:C(:O)C1:C(F):C(F):C(C2:C:C(:C:C(:C:2)C2:C(F):C(F):C(C(:O):O):C(F):C:2F)C2:C:C(:C:C(:C:2)C2:C:C(:C:C(:C:2)C2:C(F):C(F):C(C(:O):O):C(F):C:2F)C2:C(F):C(F):C(C(:O):O):C(F):C:2F)C2:C:C(:C:C(:C:2)C2:C(F):C(F):C(C(:O):O):C(F):C:2F)C2:C(F):C(F):C(C(:O):O):C(F):C:2F):C(F):C:1F,1
SR_eft_v1-4c_porphyrin_Ch_v2-8c_Mn_1_Ch_v3-3c_B_Ch_1B_2NH2_Ch_1x1x2,0.11654,0.8443,0.346932,4820.48,1672.38,15.83946,12.42393,25652.39722,,,,566,,40,40,32,C124Cl1H94Mn4N60,0.014336918,8,8c_Mn_1_Ch,278,NC1:C:C(C2:N:N:N:N:2):C(N):C:C:1C1:C:C(:C:C(:C:1)C1:C:C(N):C(:C:C:1N)C1:C2:C:C:C(:N:2):C(C2:C:C(N):C(:C:C:2N)C2:C:C(:C:C(:C:2)C2:C:C(N):C(:C:C:2N)C2:N:N:N:N:2)C2:C:C(N):C(:C:C:2N)C2:N:N:N:N:2):C2:C:C:C(:[NH]:2):C(C2:C:C(N):C(:C:C:2N)C2:C:C(:C:C(:C:2)C2:C:C(N):C(:C:C:2N)C2:N:N:N:N:2)C2:C:C(N):C(:C:C:2N)C2:N:N:N:N:2):C2:C:C:C(:N:2):C(C2:C:C(N):C(:C:C:2N)C2:C:C(:C:C(:C:2)C2:C:C(N):C(:C:C:2N)C2:N:N:N:N:2)C2:C:C(N):C(:C:C:2N)C2:N:N:N:N:2):C2:C:C:C:1:[NH]:2)C1:C:C(N):C(:C:C:1N)C1:N:N:N:N:1,1
SR_dnx_v1-4c_Ni_1_Ch_v2-4c_1anC_Ch_v3-3c_B_Ch_1B_4CN_Ch_1x1x1,0.20039,0.6315,0.842472,1568.63,1321.52,11.54249,6.62246,43205.19914,,,,1680,,108,96,96,C47H2N16Ni1O4,0.014492754,4,4c_Ni_1_Ch,,None,1
SR_eft_v1-4c_porphyrin_Ch_v2-8c_Co_2_Ch_v3-3c_pyrrole_Ch_ntn_edge_1B_2SH_Ch_2x2x2,0.16719,0.68636,0.744811,2465.22,1836.13,8.8067,5.87491,45732.69444,,,,1688,,160,160,128,C100Cl1Co4H58N32S16,0.019323671,8,8c_Co_2_Ch,206,SC1:C:C(:C(S):C:C:1C1C:N:N:N:1)C1:C:C:C(C2:C3:C:C:C(:N:3):C(C3:C:C:C(C4:C:C(S):C(:C:C:4S)C4C:N:N:N:4):N:3C3:C:C(S):C(:C:C:3S)C3C:N:N:N:3):C3:C:C:C(:[NH]:3):C(C3:C:C:C(C4:C:C(S):C(:C:C:4S)C4C:N:N:N:4):N:3C3:C:C(S):C(:C:C:3S)C3C:N:N:N:3):C3:C:C:C(:N:3):C(C3:C:C:C(C4:C:C(S):C(:C:C:4S)C4C:N:N:N:4):N:3C3:C:C(S):C(:C:C:3S)C3C:N:N:N:3):C3:C:C:C:2:[NH]:3):N:1C1:C:C(S):C(:C:C:1S)C1C:N:N:N:1,1
SR_epa_v1-6c_B_Ch_v2-6c_Mg_1_Ch_v3-4c_B_Ch_1DoU_Ch_1B_4H_Ch_2x2x1,0.64678,0.61938,0.77508,1679.61,1301.83,10.69026,3.69659,65430.32275,,,,2808,,360,360,144,C22H12Mg1O4,0.026315789,6,6c_Mg_1_Ch,,None,1
SR_ecg_v1-8c_Co_1_Ch_1B_4F_Ch_1x1x2,0.20929,0.6025,1.22413,1137.95,1392.99,10.27243,8.20983,45387.00137,,,,1656,,480,480,384,C32Co4F16O17,0.061538462,8,8c_Co_1_Ch,16,O:C(:O)C1:C(F):C(F):C(C(:O):O):C(F):C:1F,1
SR_dnj_v1-8c_Co_1_Ch_v2-6c_B_Ch_v3-3c_B_Ch_1DoU_Ch_1x1x1,0.16875,0.80714,0.46181,2878.65,1329.39,21.19371,15.32657,27285.18862,,,,702,,120,120,96,C60Co4H36O17,0.03539823,8,8c_Co_1_Ch,168,O:C(:O)C=CC1:C:C(C=CC(:O):O):C:C(C=CC2:C(C=CC3:C:C(C=CC(:O):O):C:C(C=CC(:O):O):C:3):C(C=CC3:C:C(C=CC(:O):O):C:C(C=CC(:O):O):C:3):C(C=CC3:C:C(C=CC(:O):O):C:C(C=CC(:O):O):C:3):C(C=CC3:C:C(C=CC(:O):O):C:C(C=CC(:O):O):C:3):C:2C=CC2:C:C(C=CC(:O):O):C:C(C=CC(:O):O):C:2):C:1,1
SR_epe_v1-4c_Cu_1_Ch_v2-3c_Cu_imadazoline_Ch_v3-4c_Cu_1_Ch_1B_2NO2_Ch_ntn_edge_1x1x1,0.03685,0.96152,0.118852,4793.98,569.773,66.95733,32.30422,635999.7416,,,,3000,,612,576,576,C48Cu9H20N20O28,0.077586207,"3,4","3c_Cu_imadazoline_Ch,4c_Cu_1_Ch","24,10",O:C(:O)C1:C:C(:C(:C:C:1N(:O):O)C1:C:N:N:C:1)N(:O):O___O:C(:O)C1:C:N:N:C:1,1
SR_dnl_v1-4c_Ni_1_Ch_v2-6c_Ni_1_Ch_v3-3c_B_Ch_1TrU_Ch_1x1x1,0.18494,0.79538,0.617395,4077.32,2517.31,11.74989,7.51989,79679.36198,,,,1760,,720,672,576,C27H4Ni5O19,0.1,"4,6","4c_Ni_1_Ch,6c_Ni_1_Ch","8,24",O:C(:O)C#CC(:O):O___O:C(:O)C#CC1:C:C(C#CC(:O):O):C:C(C#CC(:O):O):C:1,1
SR_dpd_v1-4c_bicyclooctane_Ch_v2-4c_V_1_Ch_v3-4c_1anC_Ch_ntn_edge_1B_2NH2_Ch_1x1x1,0.20314,0.73002,0.67994,2621.39,1782.39,15.94226,7.05356,32642.84913,,,,1176,,216,192,192,C69H40N8O24V6,0.042553191,4,4c_V_1_Ch,141,NC1:C:C(:C(N):C:C:1C12C=C(C(:O):O)C(C(=C1)C(:O):O)C(=C2)C(:O):O)C(C1:C:C(N):C(:C:C:1N)C12C=C(C(:O):O)C(C(=C1)C(:O):O)C(=C2)C(:O):O)(C1:C:C(N):C(:C:C:1N)C12C=C(C(:O):O)C(C(=C1)C(:O):O)C(=C2)C(:O):O)C1:C:C(N):C(:C:C:1N)C12C=C(C(:O):O)C(C(=C1)C(:O):O)C(=C2)C(:O):O,1
SR_epc_v1-6c_Fe_1_Ch_v2-4c_bicyclooctane_Ch_v3-4c_B_Ch_1TrU_Ch_1DoU_Ch_1x1x2,0.25317,0.74598,0.656687,2424.09,1591.87,16.45591,6.7551,29128.84807,,,,832,,240,240,192,C28Fe3H8O13,0.06122449,6,6c_Fe_1_Ch,"28,40",O:C(:O)C#CC1:C:C(C#CC(:O):O):C(C#CC(:O):O):C:C:1C#CC(:O):O___O:C(:O)C=CC1=CC2(C=CC(:O):O)C=C(C=CC(:O):O)C1C(C=CC(:O):O)=C2,1
SR_epe_v1-4c_Ni_1_Ch_v2-3c_pyrrole_Ch_v3-4c_Ni_1_Ch_1B_2furan_Ch_1x1x1,0.06186,0.96542,0.0869292,5890.47,512.054,74.08562,37.43132,690020.3916,,,,3144,,324,288,288,C74H28N2Ni3O24,0.0234375,4,4c_Ni_1_Ch,64,O:C(:O)C1:C:C2:C:C3:O:C(:C:C:3:C:C:2:O:1)C1:C:C:C(C2:C:C3:C:C4:O:C(:C:C:4:C:C:3:O:2)C(:O):O):N:1C1:C:C2:C:C3:O:C(:C:C:3:C:C:2:O:1)C(:O):O,1
SR_epa_v1-6c_Mg_1_Ch_v2-6c_B_Ch_v3-4c_B_Ch_1TrU_Ch_1DoU_Ch_2x2x1,0.51935,0.7059,0.656195,2830.01,1857.04,11.42089,6.69914,97768.34329,,,,2808,,1080,1080,432,C16H8Mg3O12,0.083333333,6,6c_Mg_1_Ch,"36,36",O:C(:O)C#CC1:C(C#CC(:O):O):C(C#CC(:O):O):C(C#CC(:O):O):C(C#CC(:O):O):C:1C#CC(:O):O___O:C(:O)C=CC1:C:C(C=CC(:O):O):C(C=CC(:O):O):C:C:1C=CC(:O):O,1
SR_eps_v1-3c_triazine_Ch_v2-8c_Mn_1_Ch_v3-4c_porphyrin_Ch_1B_2SH_Ch_1x1x1,0.07538,0.83102,0.407148,4159.2,1693.41,24.21218,8.6333,37939.86963,,,,741,,60,60,48,C112Cl1H58Mn4N48S24,0.016460905,8,8c_Mn_1_Ch,242,SC1:C:C(C2:N:C(:N:C(:N:2)C2:C:C(S):C(:C:C:2S)C2:C3:C:C:C(:N:3):C(C3:C:C(S):C(:C:C:3S)C3:N:C(:N:C(:N:3)C3:C:C(S):C(:C:C:3S)C3:N:N:N:N:3)C3:C:C(S):C(:C:C:3S)C3:N:N:N:N:3):C3:C:C:C(:[NH]:3):C(C3:C:C(S):C(:C:C:3S)C3:N:C(:N:C(:N:3)C3:C:C(S):C(:C:C:3S)C3:N:N:N:N:3)C3:C:C(S):C(:C:C:3S)C3:N:N:N:N:3):C3:C:C:C(:N:3):C(C3:C:C(S):C(:C:C:3S)C3:N:C(:N:C(:N:3)C3:C:C(S):C(:C:C:3S)C3:N:N:N:N:3)C3:C:C(S):C(:C:C:3S)C3:N:N:N:N:3):C3:C:C:C:2:[NH]:3)C2:C:C(S):C(:C:C:2S)C2:N:N:N:N:2):C(S):C:C:1C1:N:N:N:N:1,1
SR_epa_v1-6c_Mg_1_Ch_v2-6c_B_Ch_v3-4c_B_Ch_2TrU_Ch_1DoU_Ch_1x1x1,0.5661,0.75146,0.554116,3985,2208.15,12.34276,6.63451,30472.87365,,,,738,,270,270,108,C18H8Mg3O12,0.078947368,6,6c_Mg_1_Ch,"48,36",O:C(:O)C#CC#CC1:C(C#CC#CC(:O):O):C(C#CC#CC(:O):O):C(C#CC#CC(:O):O):C(C#CC#CC(:O):O):C:1C#CC#CC(:O):O___O:C(:O)C=CC1:C:C(C=CC(:O):O):C(C=CC(:O):O):C:C:1C=CC(:O):O,1
SR_dnu_v1-4c_ethene_Ch_v2-8c_Mn_1_Ch_v3-4c_ethene_Ch_1B_2OH_Ch_ntn_edge_1x1x1,0.2775,0.55438,1.10773,869.582,963.265,13.87698,4.3212,32530.78436,,,,1836,,240,240,192,C68Cl1H32Mn4N32O16,0.026845638,8,8c_Mn_1_Ch,,None,1
SR_eft_v1-4c_porphyrin_Ch_v2-8c_Mn_1_Ch_v3-3c_pyrrole_Ch_ntn_edge_1B_2NH2_Ch_2x2x2,0.16124,0.71402,0.651245,2728.93,1777.2,9.44117,7.23904,46710.55432,,,,1752,,160,160,128,C92Cl1H66Mn4N56,0.018604651,8,8c_Mn_1_Ch,214,NC1:C:C(:C(N):C:C:1C1:N:N:N:N:1)C1:C:C:C(C2:C3:C:C:C(:N:3):C(C3:C:C:C(C4:C:C(N):C(:C:C:4N)C4:N:N:N:N:4):N:3C3:C:C(N):C(:C:C:3N)C3:N:N:N:N:3):C3:C:C:C(:[NH]:3):C(C3:C:C:C(C4:C:C(N):C(:C:C:4N)C4:N:N:N:N:4):N:3C3:C:C(N):C(:C:C:3N)C3:N:N:N:N:3):C3:C:C:C(:N:3):C(C3:C:C:C(C4:C:C(N):C(:C:C:4N)C4:N:N:N:N:4):N:3C3:C:C(N):C(:C:C:3N)C3:N:N:N:N:3):C3:C:C:C:2:[NH]:3):N:1C1:C:C(N):C(:C:C:1N)C1:N:N:N:N:1,1
SR_dnj_v1-8c_Co_1_Ch_v2-6c_B_Ch_v3-3c_pyrrole_Ch_1B_4Br_Ch_1x1x1,0.10616,0.67542,1.34339,853.883,1147.09,19.9191,13.5911,41607.53502,,,,1086,,120,120,96,Br48C100Co4H8N4O17,0.02259887,8,8c_Co_1_Ch,264,O:C(:O)C1:C(Br):C(Br):C(:C(Br):C:1Br)C1:C:C:C(C2:C(Br):C(Br):C(C(:O):O):C(Br):C:2Br):N:1C1:C(Br):C(Br):C(:C(Br):C:1Br)C1:C(C2:C(Br):C(Br):C(:C(Br):C:2Br)N2:C(:C:C:C:2C2:C(Br):C(Br):C(C(:O):O):C(Br):C:2Br)C2:C(Br):C(Br):C(C(:O):O):C(Br):C:2Br):C(C2:C(Br):C(Br):C(:C(Br):C:2Br)N2:C(:C:C:C:2C2:C(Br):C(Br):C(C(:O):O):C(Br):C:2Br)C2:C(Br):C(Br):C(C(:O):O):C(Br):C:2Br):C(C2:C(Br):C(Br):C(:C(Br):C:2Br)N2:C(:C:C:C:2C2:C(Br):C(Br):C(C(:O):O):C(Br):C:2Br)C2:C(Br):C(Br):C(C(:O):O):C(Br):C:2Br):C(C2:C(Br):C(Br):C(:C(Br):C:2Br)N2:C(:C:C:C:2C2:C(Br):C(Br):C(C(:O):O):C(Br):C:2Br)C2:C(Br):C(Br):C(C(:O):O):C(Br):C:2Br):C:1C1:C(Br):C(Br):C(:C(Br):C:1Br)N1:C(:C:C:C:1C1:C(Br):C(Br):C(C(:O):O):C(Br):C:1Br)C1:C(Br):C(Br):C(C(:O):O):C(Br):C:1Br,1
SR_dpd_v1-4c_bicyclooctane_Ch_v2-4c_V_1_Ch_v3-4c_1anC_Ch_ntn_edge_1B_2F_Ch_1x1x1,0.17221,0.7398,0.694972,2544.46,1768.32,15.82603,7.76248,32391.44287,,,,1048,,216,192,192,C69F8H24O24V6,0.048,4,4c_V_1_Ch,125,O:C(:O)C1=CC2(C=C(C(:O):O)C1C(=C2)C(:O):O)C1:C:C(F):C(:C:C:1F)C(C1:C:C(F):C(:C:C:1F)C12C=C(C(:O):O)C(C(=C1)C(:O):O)C(=C2)C(:O):O)(C1:C:C(F):C(:C:C:1F)C12C=C(C(:O):O)C(C(=C1)C(:O):O)C(=C2)C(:O):O)C1:C:C(F):C(:C:C:1F)C12C=C(C(:O):O)C(C(=C1)C(:O):O)C(=C2)C(:O):O,1
SR_eci_v1-8c_Mn_1_Ch_1B_2SH_Ch_1x1x1,0.15782,0.73682,0.687575,2933.55,2017.04,11.85064,7.70571,26327.32975,,,,744,,160,160,128,C32Cl1H16Mn4N32S8,0.04494382,8,8c_Mn_1_Ch,22,SC1:C:C(C2:N:N:N:N:2):C(S):C:C:1C1:N:N:N:N:1,1
SR_dmg_v1-3c_Cu_imadazoline_Ch_v2-4c_bicyclooctane_Ch_v3-3c_B_Ch_1B_2NO2_Ch_ntn_edge_2x2x1,0.09177,0.8597,0.349239,5238.44,1829.47,16.337,11.81799,40593.80086,,,,696,,48,48,48,C41Cu3H19N12O12,0.035714286,3,3c_Cu_imadazoline_Ch,"28,280",O:N(:O)C1:C:C(C2:C:N:N:C:2):C(:C:C:1C1:C:N:N:C:1)N(:O):O___O:N(:O)C1:C:C(C2:C:N:N:C:2):C(:C:C:1C1=CC2(C=C3C4:C:C5:C:C(:C:4)C4:C:C(:C(:C:C:4N(:O):O)C4:C:C6:C:C(:C:4)C4=CC7(C=C(C8:C:C(:C:C(:C:8)C8:C:C(:C(:C:C:8N(:O):O)C8:C:C(:C:C(:C:8)C8=CC9(C=C5C8C(=C9)C5:C:C(:C(:C:C:5N(:O):O)C5:C:N:N:C:5)N(:O):O)C5:C:C(:C(:C:C:5N(:O):O)C5:C:N:N:C:5)N(:O):O)C(=C2)C31)N(:O):O)C1=CC2(C=C6C1C(=C2)C1:C:C(:C(:C:C:1N(:O):O)C1:C:N:N:C:1)N(:O):O)C1:C:C(:C(:C:C:1N(:O):O)C1:C:N:N:C:1)N(:O):O)C4C(=C7)C1:C:C(:C(:C:C:1N(:O):O)C1:C:N:N:C:1)N(:O):O)C1:C:C(:C(:C:C:1N(:O):O)C1:C:N:N:C:1)N(:O):O)N(:O):O)C1:C:C(:C(:C:C:1N(:O):O)C1:C:N:N:C:1)N(:O):O)N(:O):O,1
SR_dnl_v1-4c_Ni_1_Ch_v2-6c_Ni_1_Ch_v3-3c_B_Ch_ntn_edge_1B_4F_Ch_1x1x1,0.20304,0.69338,0.959607,2043.63,1961.08,10.05619,5.52919,67879.6927,,,,2336,,720,672,576,C33F12H4Ni5O19,0.073529412,"4,6","4c_Ni_1_Ch,6c_Ni_1_Ch","16,18",O:C(:O)C1:C(F):C(F):C(C(:O):O):C(F):C:1F___O:C(:O)C1:C:C(:C:C(:C:1)C(:O):O)C(:O):O,1
SR_dpd_v1-4c_1anC_Ch_v2-4c_V_1_Ch_v3-4c_1anC_Ch_ntn_edge_2B_2Br_Ch_1x1x1,0.19969,0.63088,1.34137,1172.41,1572.64,14.33917,4.90189,64444.53863,,,,2296,,216,192,192,Br48C161H48O24V6,0.021352313,4,4c_V_1_Ch,281,O:C(:O)C1:C:C(Br):C(:C:C:1Br)C1:C:C(Br):C(:C:C:1Br)C(C1:C:C(Br):C(:C:C:1Br)C1:C:C(Br):C(:C:C:1Br)C(:O):O)(C1:C:C(Br):C(:C:C:1Br)C1:C:C(Br):C(:C:C:1Br)C(:O):O)C(C(C1:C:C(Br):C(:C:C:1Br)C1:C:C(Br):C(:C:C:1Br)C(:O):O)(C1:C:C(Br):C(:C:C:1Br)C1:C:C(Br):C(:C:C:1Br)C(:O):O)C1:C:C(Br):C(:C:C:1Br)C1:C:C(Br):C(:C:C:1Br)C(:O):O)(C(C1:C:C(Br):C(:C:C:1Br)C1:C:C(Br):C(:C:C:1Br)C(:O):O)(C1:C:C(Br):C(:C:C:1Br)C1:C:C(Br):C(:C:C:1Br)C(:O):O)C1:C:C(Br):C(:C:C:1Br)C1:C:C(Br):C(:C:C:1Br)C(:O):O)C(C1:C:C(Br):C(:C:C:1Br)C1:C:C(Br):C(:C:C:1Br)C(:O):O)(C1:C:C(Br):C(:C:C:1Br)C1:C:C(Br):C(:C:C:1Br)C(:O):O)C1:C:C(Br):C(:C:C:1Br)C1:C:C(Br):C(:C:C:1Br)C(:O):O,1