name,k,VF,density,ASA_grav,ASA_vol,LPD,PLD,volume,,,,N_atoms,,N_metal_containing_bonds,N_metal_nonmetal_bonds,N_metal_linker_bonds,formula,metal_nonmetal_ratio,metal_node_connectivity,metal_node_name,N_atoms_per_linker,linker_SMILES,N_ccs
SR_epw_v1-6c_B_Ch_v2-12c_Mn_1_Ch_v3-3c_B_Ch_1TrU_Ch_1DoU_Ch_1x1x1,0.27542,0.67562,0.7935,2021.54,1604.09,14.61426,4.88185,66791.80558,,,,2672,,672,672,288,C90H42Mn8O27,0.050314465,12,12c_Mn_1_Ch,"156,156,156,156,156,000,000,000,000,000,000",O:C(:O)C=CC1:C:C(C#CC2:C(C#CC3:C:C(C=CC(:O):O):C:C(C=CC(:O):O):C:3):C(C#CC3:C:C(C=CC(:O):O):C:C(C=CC(:O):O):C:3):C(C#CC3:C:C(C=CC(:O):O):C:C(C=CC(:O):O):C:3):C(C#CC3:C:C(C=CC(:O):O):C:C(C=CC(:O):O):C:3):C:2C#CC2:C:C(C=CC(:O):O):C:C(C=CC(:O):O):C:2):C:C(C=CC(:O):O):C:1___OC(:O)C=CC1:C:C(C#CC2:C(C#CC3:C:C(C=CC(O):O):C:C(C=CC(:O):O):C:3):C(C#CC3:C:C(C=CC(:O):O):C:C(C=CC(:O):O):C:3):C(C#CC3:C:C(C=CC(:O):O):C:C(C=CC(:O):O):C:3):C(C#CC3:C:C(C=CC(:O):O):C:C(C=CC(:O):O):C:3):C:2C#CC2:C:C(C=CC(:O):O):C:C(C=CC(:O):O):C:2):C:C(C=CC(:O):O):C:1___OC(:O)C=CC1:C:C(C#CC2:C(C#CC3:C:C(C=CC(O):O):C:C(C=CC(:O):O):C:3):C(C#CC3:C:C(C=CC(:O):O):C:C(C=CC(:O):O):C:3):C(C#CC3:C:C(C=CC(:O):O):C:C(C=CC(:O):O):C:3):C(C#CC3:C:C(C=CC(:O):O):C:C(C=CC(:O):O):C:3):C:2C#CC2:C:C(C=CC(O):O):C:C(C=CC(:O):O):C:2):C:C(C=CC(O):O):C:1___OC(:O)C=CC1:C:C(C#CC2:C(C#CC3:C:C(C=CC(O):O):C:C(C=CC(:O):O):C:3):C(C#CC3:C:C(C=CC(O):O):C:C(C=CC(:O):O):C:3):C(C#CC3:C:C(C=CC(:O):O):C:C(C=CC(:O):O):C:3):C(C#CC3:C:C(C=CC(:O):O):C:C(C=CC(:O):O):C:3):C:2C#CC2:C:C(C=CC(O):O):C:C(C=CC(:O):O):C:2):C:C(C=CC(:O):O):C:1___OC(:O)C=CC1:C:C(C#CC2:C(C#CC3:C:C(C=CC(O):O):C:C(C=CC(:O):O):C:3):C(C#CC3:C:C(C=CC(O):O):C:C(C=CC(:O):O):C:3):C(C#CC3:C:C(C=CC(O):O):C:C(C=CC(:O):O):C:3):C(C#CC3:C:C(C=CC(:O):O):C:C(C=CC(:O):O):C:3):C:2C#CC2:C:C(C=CC(O):O):C:C(C=CC(:O):O):C:2):C:C(C=CC(O):O):C:1___OC(:O)C=CC1:C:C(C#CC2:C(C#CC3:C:C(C=CC(O):O):C:C(C=CC(:O):O):C:3):C(C#CC3:C:C(C=CC(O):O):C:C(C=CC(:O):O):C:3):C(C#CC3:C:C(C=CC(O):O):C:C(C=CC(:O):O):C:3):C(C#CC3:C:C(C=CC(O):O):C:C(C=CC(:O):O):C:3):C:2C#CC2:C:C(C=CC(O):O):C:C(C=CC(:O):O):C:2):C:C(C=CC(:O):O):C:1___OC(:O)C=CC1:C:C(C#CC2:C(C#CC3:C:C(C=CC(O):O):C:C(C=CC(:O):O):C:3):C(C#CC3:C:C(C=CC(O):O):C:C(C=CC(:O):O):C:3):C(C#CC3:C:C(C=CC(O):O):C:C(C=CC(O):O):C:3):C(C#CC3:C:C(C=CC(O):O):C:C(C=CC(:O):O):C:3):C:2C#CC2:C:C(C=CC(O):O):C:C(C=CC(:O):O):C:2):C:C(C=CC(O):O):C:1___OC(:O)C=CC1:C:C(C#CC2:C(C#CC3:C:C(C=CC(O):O):C:C(C=CC(O):O):C:3):C(C#CC3:C:C(C=CC(O):O):C:C(C=CC(:O):O):C:3):C(C#CC3:C:C(C=CC(:O):O):C:C(C=CC(:O):O):C:3):C(C#CC3:C:C(C=CC(O):O):C:C(C=CC(:O):O):C:3):C:2C#CC2:C:C(C=CC(O):O):C:C(C=CC(O):O):C:2):C:C(C=CC(O):O):C:1___OC(:O)C=CC1:C:C(C#CC2:C(C#CC3:C:C(C=CC(O):O):C:C(C=CC(O):O):C:3):C(C#CC3:C:C(C=CC(O):O):C:C(C=CC(:O):O):C:3):C(C#CC3:C:C(C=CC(O):O):C:C(C=CC(:O):O):C:3):C(C#CC3:C:C(C=CC(O):O):C:C(C=CC(:O):O):C:3):C:2C#CC2:C:C(C=CC(O):O):C:C(C=CC(:O):O):C:2):C:C(C=CC(O):O):C:1___OC(:O)C=CC1:C:C(C#CC2:C(C#CC3:C:C(C=CC(O):O):C:C(C=CC(O):O):C:3):C(C#CC3:C:C(C=CC(O):O):C:C(C=CC(O):O):C:3):C(C#CC3:C:C(C=CC(O):O):C:C(C=CC(:O):O):C:3):C(C#CC3:C:C(C=CC(O):O):C:C(C=CC(:O):O):C:3):C:2C#CC2:C:C(C=CC(O):O):C:C(C=CC(O):O):C:2):C:C(C=CC(O):O):C:1___OC(:O)C=CC1:C:C(C#CC2:C(C#CC3:C:C(C=CC(O):O):C:C(C=CC(O):O):C:3):C(C#CC3:C:C(C=CC(O):O):C:C(C=CC(O):O):C:3):C(C#CC3:C:C(C=CC(O):O):C:C(C=CC(O):O):C:3):C(C#CC3:C:C(C=CC(O):O):C:C(C=CC(O):O):C:3):C:2C#CC2:C:C(C=CC(O):O):C:C(C=CC(O):O):C:2):C:C(C=CC(O):O):C:1,1
SR_eft_v1-4c_porphyrin_Ch_v2-8c_Co_1_Ch_v3-3c_triazine_Ch_1B_2SH_Ch_2x1x2,0.13975,0.77756,0.543348,3438.91,1868.52,12.73805,8.44694,35535.27741,,,,924,,80,80,64,C112Co4H58N16O17S24,0.017621145,8,8c_Co_1_Ch,226,O:C(:O)C1:C:C(S):C(:C:C:1S)C1:N:C(:N:C(:N:1)C1:C:C(S):C(:C:C:1S)C1:C2:C:C:C(:N:2):C(C2:C:C(S):C(:C:C:2S)C2:N:C(:N:C(:N:2)C2:C:C(S):C(:C:C:2S)C(:O):O)C2:C:C(S):C(:C:C:2S)C(:O):O):C2:C:C:C(:[NH]:2):C(C2:C:C(S):C(:C:C:2S)C2:N:C(:N:C(:N:2)C2:C:C(S):C(:C:C:2S)C(:O):O)C2:C:C(S):C(:C:C:2S)C(:O):O):C2:C:C:C(:N:2):C(C2:C:C(S):C(:C:C:2S)C2:N:C(:N:C(:N:2)C2:C:C(S):C(:C:C:2S)C(:O):O)C2:C:C(S):C(:C:C:2S)C(:O):O):C2:C:C:C:1:[NH]:2)C1:C:C(S):C(:C:C:1S)C(:O):O,1
SR_dnx_v1-4c_V_1_Ch_v2-4c_1anC_Ch_v3-3c_B_Ch_1B_2CH3_Ch_1x1x1,0.20445,0.71002,0.583537,3139.47,1832,14.01434,7.57931,42188.69643,,,,1872,,108,96,96,C39H34O4V1,0.012987013,4,4c_V_1_Ch,,None,1
SR_eft_v1-4c_porphyrin_Ch_v2-8c_Co_2_Ch_v3-3c_pyrrole_Ch_1B_4F_Ch_1x1x2,0.21295,0.77582,0.581734,3529.33,2053.13,10.49455,8.40228,18816.92057,,,,470,,40,40,32,C124Cl1Co4F48H26N32,0.017316017,8,8c_Co_2_Ch,230,FC1:C(F):C(:C(F):C(F):C:1C1C:N:N:N:1)C1:C:C:C(C2:C(F):C(F):C(:C(F):C:2F)C2:C3:C:C:C(:N:3):C(C3:C(F):C(F):C(:C(F):C:3F)C3:C:C:C(C4:C(F):C(F):C(C5C:N:N:N:5):C(F):C:4F):N:3C3:C(F):C(F):C(C4C:N:N:N:4):C(F):C:3F):C3:C:C:C(:[NH]:3):C(C3:C(F):C(F):C(:C(F):C:3F)C3:C:C:C(C4:C(F):C(F):C(C5C:N:N:N:5):C(F):C:4F):N:3C3:C(F):C(F):C(C4C:N:N:N:4):C(F):C:3F):C3:C:C:C(:N:3):C(C3:C(F):C(F):C(:C(F):C:3F)C3:C:C:C(C4:C(F):C(F):C(C5C:N:N:N:5):C(F):C:4F):N:3C3:C(F):C(F):C(C4C:N:N:N:4):C(F):C:3F):C3:C:C:C:2:[NH]:3):N:1C1:C(F):C(F):C(C2C:N:N:N:2):C(F):C:1F,1
SR_dnx_v1-4c_V_1_Ch_v2-4c_1anC_Ch_v3-3c_B_Ch_1B_2NH2_Ch_1x1x1,0.19641,0.72868,0.593555,3256.44,1932.88,14.07705,8.63573,42002.72497,,,,1680,,108,96,96,C31H26N8O4V1,0.014492754,4,4c_V_1_Ch,,None,1
SR_dna_v1-8c_Co_1_Ch_v2-6c_B_Ch_v3-3c_B_Ch_ntn_edge_1B_2CN_Ch_1x1x1,0.20214,0.6498,0.87136,1576.3,1373.53,16.02592,6.08604,33400.44036,,,,1404,,240,240,192,C68Co4H20N8O17,0.03539823,8,8c_Co_1_Ch,168,N#CC1:C:C(:C(C#N):C:C:1C1:C:C(:C:C(:C:1)C(:O):O)C(:O):O)C1:C(C2:C:C(C#N):C(:C:C:2C#N)C2:C:C(:C:C(:C:2)C(:O):O)C(:O):O):C(C2:C:C(C#N):C(:C:C:2C#N)C2:C:C(:C:C(:C:2)C(:O):O)C(:O):O):C(C2:C:C(C#N):C(:C:C:2C#N)C2:C:C(:C:C(:C:2)C(:O):O)C(:O):O):C(C2:C:C(C#N):C(:C:C:2C#N)C2:C:C(:C:C(:C:2)C(:O):O)C(:O):O):C:1C1:C:C(C#N):C(:C:C:1C#N)C1:C:C(:C:C(:C:1)C(:O):O)C(:O):O,1
SR_ecf_v1-8c_Co_2_Ch_1B_4H_Ch_1x1x1,0.36838,0.79848,0.497872,3574.19,1779.49,19.50955,9.3866,25710.44932,,,,558,,120,120,96,C40Cl1Co4H24N24,0.04494382,8,8c_Co_2_Ch,22,C1:N:N:N:C1C1:C:C:C(:C:C:1)C1C:N:N:N:1,1
SR_ecf_v1-8c_Zr_1_Ch_1B_2OH_Ch_2x2x2,0.1532,0.70702,0.866099,1884.98,1632.58,17.00966,6.28656,170893.4632,,,,5280,,2304,2304,768,C16H16O20Zr3,0.057692308,8,8c_Zr_1_Ch,18,O:C(:O)C1:C:C(O):C(:C:C:1O)C(:O):O,1
SR_epe_v1-4c_Ni_1_Ch_v2-3c_pyrrole_Ch_v3-4c_Ni_1_Ch_3B_fused_8H_Ch_1x1x1,0.11161,0.96396,0.0807897,6192.54,500.293,76.03419,39.14606,801883.988,,,,4008,,324,288,288,C98H52N2Ni3O12,0.018292683,4,4c_Ni_1_Ch,82,O:C(:O)C1:C:C:C2:C(:C:C:C3:C:C(:C:C:C:3:2)C2:C:C:C(C3:C:C:C4:C(:C:C:C5:C:C(:C:C:C:5:4)C(:O):O):C:3):N:2C2:C:C:C3:C(:C:C:C4:C:C(:C:C:C:4:3)C(:O):O):C:2):C:1,1
SR_dpd_v1-4c_bicyclooctane_Ch_v2-4c_V_1_Ch_v3-4c_1anC_Ch_ntn_edge_1B_4F_Ch_1x1x1,0.17741,0.59492,1.11318,895.643,997.011,11.10203,3.63251,36079.50467,,,,1688,,216,192,192,C117F48H16O24V6,0.029268293,4,4c_V_1_Ch,205,O:C(:O)C1:C(F):C(F):C(C2=CC3(C=C(C4:C(F):C(F):C(C(:O):O):C(F):C:4F)C2C(=C3)C(C2=CC3(C=C(C4:C(F):C(F):C(C(:O):O):C(F):C:4F)C2C(=C3)C2:C(F):C(F):C(C(:O):O):C(F):C:2F)C2:C(F):C(F):C(C(:O):O):C(F):C:2F)(C2=CC3(C=C(C4:C(F):C(F):C(C(:O):O):C(F):C:4F)C2C(=C3)C2:C(F):C(F):C(C(:O):O):C(F):C:2F)C2:C(F):C(F):C(C(:O):O):C(F):C:2F)C2=CC3(C=C(C4:C(F):C(F):C(C(:O):O):C(F):C:4F)C2C(=C3)C2:C(F):C(F):C(C(:O):O):C(F):C:2F)C2:C(F):C(F):C(C(:O):O):C(F):C:2F)C2:C(F):C(F):C(C(:O):O):C(F):C:2F):C(F):C:1F,1
SR_dnl_v1-4c_Ni_1_Ch_v2-6c_Ni_1_Ch_v3-3c_triazine_Ch_ntn_edge_1B_2F_Ch_1x1x1,0.21555,0.64172,1.10099,900.676,991.631,13.76812,8.70808,54167.34889,,,,2240,,720,672,576,C30F6H7N3Ni5O19,0.076923077,"4,6","4c_Ni_1_Ch,6c_Ni_1_Ch","6,45",O:C(:O)C(:O):O___O:C(:O)C1:C:C(F):C(:C:C:1F)C1:N:C(:N:C(:N:1)C1:C:C(F):C(:C:C:1F)C(:O):O)C1:C:C(F):C(:C:C:1F)C(:O):O,1
SR_dnz_v1-4c_1anC_Ch_v2-6c_Zr_1_Ch_v3-3c_B_Ch_1B_2NH2_Ch_1x1x1,0.20648,0.63804,0.883168,1805.61,1594.66,9.43772,4.62963,78749.52495,,,,4080,,768,768,192,C93H100N24O32Zr6,0.024096386,6,6c_Zr_1_Ch,414,NC1:C:C(:C(N):C:C:1C(:O):O)C1(C2:C:C(N):C(:C:C:2N)C(:O):O)C2:C:C(N):C(:C:C:2N)C2:C:C3:C:C(:C:2)C2:C:C(N):C(:C:C:2N)C(C2:C:C(N):C(:C:C:2N)C(:O):O)(C2:C:C(N):C(:C:C:2N)C(:O):O)C2:C:C(N):C(:C:C:2N)C2:C:C4:C:C(:C:2)C2:C:C(N):C(:C:C:2N)C(C2:C:C(N):C(:C:C:2N)C(:O):O)(C2:C:C(N):C(:C:C:2N)C(:O):O)C2:C:C(N):C(:C:C:2N)C2:C:C(:C:C(:C:2)C2:C:C(N):C(:C:C:2N)C(C2:C:C(N):C(:C:C:2N)C(:O):O)(C2:C:C(N):C(:C:C:2N)C(:O):O)C2:C:C(N):C(:C:C:2N)C2:C:C(:C:C(:C:2)C2:C:C(N):C(:C:C:2N)C(C2:C:C(N):C(:C:C:2N)C(:O):O)(C2:C:C(N):C(:C:C:2N)C(:O):O)C2:C:C(N):C4:C:C:2N)C2:C:C(N):C1:C:C:2N)C1:C:C(N):C(:C:C:1N)C(C1:C:C(N):C(:C:C:1N)C(:O):O)(C1:C:C(N):C(:C:C:1N)C(:O):O)C1:C:C(N):C3:C:C:1N,1
SR_dnj_v1-8c_Co_1_Ch_v2-6c_B_Ch_v3-3c_triazine_Ch_1B_2NH2_Ch_1x1x1,0.13164,0.80736,0.446537,2810.96,1255.2,24.40129,17.90962,49933.72999,,,,1350,,120,120,96,C96Co4H72N36O17,0.018099548,8,8c_Co_1_Ch,330,NC1:C:C(C2:N:C(:N:C(:N:2)C2:C:C(N):C(:C:C:2N)C2:C(C3:C:C(N):C(:C:C:3N)C3:N:C(:N:C(:N:3)C3:C:C(N):C(:C:C:3N)C(:O):O)C3:C:C(N):C(:C:C:3N)C(:O):O):C(C3:C:C(N):C(:C:C:3N)C3:N:C(:N:C(:N:3)C3:C:C(N):C(:C:C:3N)C(:O):O)C3:C:C(N):C(:C:C:3N)C(:O):O):C(C3:C:C(N):C(:C:C:3N)C3:N:C(:N:C(:N:3)C3:C:C(N):C(:C:C:3N)C(:O):O)C3:C:C(N):C(:C:C:3N)C(:O):O):C(C3:C:C(N):C(:C:C:3N)C3:N:C(:N:C(:N:3)C3:C:C(N):C(:C:C:3N)C(:O):O)C3:C:C(N):C(:C:C:3N)C(:O):O):C:2C2:C:C(N):C(:C:C:2N)C2:N:C(:N:C(:N:2)C2:C:C(N):C(:C:C:2N)C(:O):O)C2:C:C(N):C(:C:C:2N)C(:O):O)C2:C:C(N):C(:C:C:2N)C(:O):O):C(N):C:C:1C(:O):O,1
SR_eft_v1-4c_porphyrin_Ch_v2-8c_Zr_1_Ch_v3-3c_triazine_Ch_1B_2NH2_Ch_2x1x2,0.1075,0.81092,0.454559,3722.13,1691.93,14.62063,12.16805,44779.22038,,,,1152,,192,192,64,C56H49N20O16Zr3,0.021276596,8,8c_Zr_1_Ch,250,NC1:C:C(C2:N:C(:N:C(:N:2)C2:C:C(N):C(:C:C:2N)C2:C3:C:C:C(:N:3):C(C3:C:C(N):C(:C:C:3N)C3:N:C(:N:C(:N:3)C3:C:C(N):C(:C:C:3N)C(:O):O)C3:C:C(N):C(:C:C:3N)C(:O):O):C3:C:C:C(:[NH]:3):C(C3:C:C(N):C(:C:C:3N)C3:N:C(:N:C(:N:3)C3:C:C(N):C(:C:C:3N)C(:O):O)C3:C:C(N):C(:C:C:3N)C(:O):O):C3:C:C:C(:N:3):C(C3:C:C(N):C(:C:C:3N)C3:N:C(:N:C(:N:3)C3:C:C(N):C(:C:C:3N)C(:O):O)C3:C:C(N):C(:C:C:3N)C(:O):O):C3:C:C:C:2:[NH]:3)C2:C:C(N):C(:C:C:2N)C(:O):O):C(N):C:C:1C(:O):O,1
SR_ecf_v1-8c_Co_1_Ch_1DoU_Ch_2x2x2,0.22216,0.64524,1.10709,1222.74,1353.68,11.76187,4.43937,59341.84106,,,,2160,,960,960,768,C16Co4H8O17,0.097560976,8,8c_Co_1_Ch,10,O:C(:O)C=CC(:O):O,1
SR_dnl_v1-4c_porphyrin_Ch_v2-6c_Ni_1_Ch_v3-3c_triazine_Ch_1B_2CF3_Ch_ntn_edge_1x1x1,0.20593,0.5398,1.1794,604.016,712.375,7.31702,3.93569,64935.14625,,,,3776,,288,288,192,C60F18H22N9Ni2O7,0.017241379,6,6c_Ni_1_Ch,"456,456",O:C(:O)C1:C2:C:C:C(:N:2):C2C3:C:C(:C(:C:C:3C(F)(F)F)C3:N:C4:N:C(:N:3)C3:C:C(:C(:C:C:3C(F)(F)F)C3:C5:C:C:C(:N:5):C(C(:O):O):C5:C:C:C(:[NH]:5):C(C(:O):O):C5:C:C:C(:N:5):C(C5:C:C(:C(:C:C:5C(F)(F)F)C5:N:C6:N:C(:N:5)C5:C:C(:C(:C:C:5C(F)(F)F)C5:C7:C:C:C(:N:7):C(C(:O):O):C7:C:C:C(:[NH]:7):C(C(:O):O):C7:C:C:C(:N:7):C(C7:C:C(:C(:C:C:7C(F)(F)F)C7:N:C(:N:C(:N:7)C7:C:C(:C(:C:C:7C(F)(F)F)C7:C8:C:C:C(:N:8):C(C(:O):O):C8:C:C:C(:[NH]:8):C(C(:O):O):C8:C:C:C(:N:8):C(C8:C:C(:C(:C:C:8C(F)(F)F)C8:N:C(:N:C(:N:8)C8:C:C(:C(:C:C:8C(F)(F)F)C8:C9:C:C:C(:N:9):C(C(:O):O):C9:C:C:C(:[NH]:9):C(C(:O):O):C9:C:C:C(:N:9):C(C9:C:C(:C6:C:C:9C(F)(F)F)C(F)(F)F):C6:C:C:C:8:[NH]:6)C(F)(F)F)C6:C:C(:C(:C:C:6C(F)(F)F)C(:C6:C:C:C(:N:6):C(C(:O):O):C6:C:C:C:1:[NH]:6):C1:C:C:C:2:[NH]:1)C(F)(F)F)C(F)(F)F):C1:C:C:C:7:[NH]:1)C(F)(F)F)C1:C:C(:C(:C:C:1C(F)(F)F)C1:C2:C:C:C(:N:2):C(C(:O):O):C2:C:C:C(:[NH]:2):C(C(:O):O):C2:C:C:C(:N:2):C(C2:C:C(:C4:C:C:2C(F)(F)F)C(F)(F)F):C2:C:C:C:1:[NH]:2)C(F)(F)F)C(F)(F)F):C1:C:C:C:5:[NH]:1)C(F)(F)F)C(F)(F)F):C1:C:C:C:3:[NH]:1)C(F)(F)F)C(F)(F)F___O:C(:O)C1:C2:C:C:C(:N:2):C2C3:C:C(:C(:C:C:3C(F)(F)F)C3:N:C4:N:C(:N:3)C3:C:C(:C(:C:C:3C(F)(F)F)C3:C5:C:C:C(:N:5):C(C5:C:C(:C(:C:C:5C(F)(F)F)C5:N:C6:N:C(:N:5)C5:C:C(:C(:C:C:5C(F)(F)F)C5:C7:C:C:C(:N:7):C(C(:O):O):C7:C:C:C(:[NH]:7):C(C(:O):O):C7:C:C:C(:N:7):C(C7:C:C(:C(:C:C:7C(F)(F)F)C7:N:C(:N:C(:N:7)C7:C:C(:C(:C:C:7C(F)(F)F)C7:C8:C:C:C(:N:8):C(C(:O):O):C8:C:C:C(:[NH]:8):C(C(:O):O):C8:C:C:C(:N:8):C(C8:C:C(:C(:C:C:8C(F)(F)F)C8:N:C(:N:C(:N:8)C8:C:C(:C(:C:C:8C(F)(F)F)C8:C9:C:C:C(:N:9):C(C(:O):O):C9:C:C:C(:[NH]:9):C(C(:O):O):C9:C:C:C(:N:9):C(C9:C:C(:C6:C:C:9C(F)(F)F)C(F)(F)F):C6:C:C:C:8:[NH]:6)C(F)(F)F)C6:C:C(:C(:C:C:6C(F)(F)F)C6:C8:C:C:C(:N:8):C(C8:C:C(:C4:C:C:8C(F)(F)F)C(F)(F)F):C4:C:C:C(:[NH]:4):C(C(:O):O):C4:C:C:C(:N:4):C(C(:O):O):C4:C:C:C:6:[NH]:4)C(F)(F)F)C(F)(F)F):C4:C:C:C:7:[NH]:4)C(F)(F)F)C4:C:C(:C(:C:C:4C(F)(F)F)C(:C4:C:C:C(:N:4):C(C(:O):O):C4:C:C:C:1:[NH]:4):C1:C:C:C:2:[NH]:1)C(F)(F)F)C(F)(F)F):C1:C:C:C:5:[NH]:1)C(F)(F)F)C(F)(F)F):C1:C:C:C(:[NH]:1):C(C(:O):O):C1:C:C:C(:N:1):C(C(:O):O):C1:C:C:C:3:[NH]:1)C(F)(F)F)C(F)(F)F,1
SR_dnl_v1-4c_porphyrin_Ch_v2-6c_CdZn_1_Ch_v3-3c_triazine_Ch_1B_2F_Ch_1x1x1,0.13479,0.8108,0.482958,4189.05,2023.13,16.9509,9.77548,170707.5127,,,,4112,,256,256,192,C144Cd3F24H54N18O13Zn1,0.015810277,6,6c_CdZn_1_Ch,,None,1
SR_dnj_v1-8c_Co_1_Ch_v2-6c_B_Ch_v3-3c_triazine_Ch_ntn_edge_2x2x2,0.33036,0.66766,1.02105,1524.69,1556.78,14.1357,9.38428,75263.15152,,,,2736,,960,960,768,C24Co4N12O17,0.075471698,8,8c_Co_1_Ch,78,O:C(:O)C1:N:C(:N:C(:N:1)C1:C(C2:N:C(:N:C(:N:2)C(:O):O)C(:O):O):C(C2:N:C(:N:C(:N:2)C(:O):O)C(:O):O):C(C2:N:C(:N:C(:N:2)C(:O):O)C(:O):O):C(C2:N:C(:N:C(:N:2)C(:O):O)C(:O):O):C:1C1:N:C(:N:C(:N:1)C(:O):O)C(:O):O)C(:O):O,1
SR_epa_v1-6c_Mg_1_Ch_v2-6c_Mg_1_Ch_v3-4c_B_Ch_1DoU_Ch_1TrU_Ch_1x1x1,0.4379,0.73242,0.614563,3659.46,2248.97,13.07968,5.3775,32628.07078,,,,828,,360,360,144,C17H9Mg4O16,0.095238095,6,6c_Mg_1_Ch,"8,36",O:C(:O)C#CC(:O):O___O:C(:O)C=CC1:C:C(C=CC(:O):O):C(C=CC(:O):O):C:C:1C=CC(:O):O,1
SR_eps_v1-3c_pyrrole_Ch_v2-8c_Mn_1_Ch_v3-4c_porphyrin_Ch_ntn_edge_1DoU_Ch_2x2x2,0.41249,0.69406,0.758372,1941.33,1472.25,17.32523,4.11794,77053.20614,,,,2952,,480,480,384,C52Cl1H26Mn4N40,0.033613445,8,8c_Mn_1_Ch,118,C(=CN1:C(:C:C:C:1C1:N:N:N:N:1)C1:N:N:N:N:1)C1:C2:C:C:C(:N:2):C(C=CN2:C(:C:C:C:2C2:N:N:N:N:2)C2:N:N:N:N:2):C2:C:C:C(:[NH]:2):C(C=CN2:C(:C:C:C:2C2:N:N:N:N:2)C2:N:N:N:N:2):C2:C:C:C(:N:2):C(C=CN2:C(:C:C:C:2C2:N:N:N:N:2)C2:N:N:N:N:2):C2:C:C:C:1:[NH]:2,1
SR_dnl_v1-4c_Ni_1_Ch_v2-6c_Ni_1_Ch_v3-3c_B_Ch_1B_2F_Ch_ntn_edge_1x1x1,0.21319,0.64172,1.08135,990.141,1070.69,11.64631,7.68829,54980.38723,,,,2336,,720,672,576,C33F6H10Ni5O19,0.073529412,"4,6","4c_Ni_1_Ch,6c_Ni_1_Ch","6,48",O:C(:O)C(:O):O___O:C(:O)C1:C:C(F):C(:C:C:1F)C1:C:C(:C:C(:C:1)C1:C:C(F):C(:C:C:1F)C(:O):O)C1:C:C(F):C(:C:C:1F)C(:O):O,1
SR_eab_v1-4c_In_1_Ch_v2-4c_In_1_Ch_ntn_edge_1B_2TrU_Ch_1x1x1,0.06632,0.92762,0.196587,5638.04,1108.37,29.48407,20.98725,170141.2699,,,,1140,,288,288,288,C52H16In3O24,0.032608696,4,4c_In_1_Ch,"20,6",O:C(:O)C#CC1:C:C:C(C#CC(:O):O):C:C:1___O:C(:O)C(:O):O,1
SR_edq_v1-3c_B_Ch_v2-6c_Cr_1_Ch_1B_2OH_Ch_1x1x1,0.13876,0.82022,0.415567,4553.35,1892.22,16.5465,10.54007,47056.19658,,,,1112,,120,120,96,C69Cr3H39O28,0.022058824,6,6c_Cr_1_Ch,90,O:C(:O)C1:C:C(O):C(:C:C:1O)C1:C:C(:C:C(:C:1)C1:C:C(O):C(:C:C:1O)C1:C:C(:C:C(:C:1)C1:C:C(O):C(:C:C:1O)C(:O):O)C1:C:C(O):C(:C:C:1O)C(:O):O)C1:C:C(O):C(:C:C:1O)C(:O):O,1
SR_eps_v1-3c_pyrrole_Ch_v2-8c_Zr_1_Ch_v3-4c_porphyrin_Ch_1B_2SH_Ch_1x1x1,0.10345,0.7884,0.531896,3069.27,1632.53,23.0425,7.27576,32003.39435,,,,804,,144,144,48,C58H41N4O16S12Zr3,0.022900763,8,8c_Zr_1_Ch,230,O:C(:O)C1:C:C(S):C(:C:C:1S)C1:C:C:C(C2:C:C(S):C(:C:C:2S)C(:O):O):N:1C1:C:C(S):C(:C:C:1S)C1:C2:C:C:C(:N:2):C(C2:C:C(S):C(:C:C:2S)N2:C(:C:C:C:2C2:C:C(S):C(:C:C:2S)C(:O):O)C2:C:C(S):C(:C:C:2S)C(:O):O):C2:C:C:C(:[NH]:2):C(C2:C:C(S):C(:C:C:2S)N2:C(:C:C:C:2C2:C:C(S):C(:C:C:2S)C(:O):O)C2:C:C(S):C(:C:C:2S)C(:O):O):C2:C:C:C(:N:2):C(C2:C:C(S):C(:C:C:2S)N2:C(:C:C:C:2C2:C:C(S):C(:C:C:2S)C(:O):O)C2:C:C(S):C(:C:C:2S)C(:O):O):C2:C:C:C:1:[NH]:2,1
SR_epo_v1-3c_pyrrole_Ch_v2-6c_Zn_1_Ch_v3-4c_porphyrin_Ch_1B_4CN_Ch_1x1x1,0.0754,0.8011,0.468147,3465.16,1622.2,20.83612,12.25404,72340.35936,,,,1564,,128,128,96,C246H27N84O26Zn8,0.020887728,6,6c_Zn_1_Ch,254,N#CC1:C(C#N):C(:C(C#N):C(C#N):C:1C(:O):O)C1:C:C:C(C2:C(C#N):C(C#N):C(C(:O):O):C(C#N):C:2C#N):N:1C1:C(C#N):C(C#N):C(:C(C#N):C:1C#N)C1:C2:C:C:C(:N:2):C(C2:C(C#N):C(C#N):C(:C(C#N):C:2C#N)N2:C(:C:C:C:2C2:C(C#N):C(C#N):C(C(:O):O):C(C#N):C:2C#N)C2:C(C#N):C(C#N):C(C(:O):O):C(C#N):C:2C#N):C2:C:C:C(:[NH]:2):C(C2:C(C#N):C(C#N):C(:C(C#N):C:2C#N)N2:C(:C:C:C:2C2:C(C#N):C(C#N):C(C(:O):O):C(C#N):C:2C#N)C2:C(C#N):C(C#N):C(C(:O):O):C(C#N):C:2C#N):C2:C:C:C(:N:2):C(C2:C(C#N):C(C#N):C(:C(C#N):C:2C#N)N2:C(:C:C:C:2C2:C(C#N):C(C#N):C(C(:O):O):C(C#N):C:2C#N)C2:C(C#N):C(C#N):C(C(:O):O):C(C#N):C:2C#N):C2:C:C:C:1:[NH]:2,1
SR_epp_v1-4c_ethene_Ch_v2-3c_B_Ch_v3-6c_Mg_1_Ch_1B_2CH3_Ch_ntn_edge_1x1x1,0.1272,0.85502,0.282652,4529.94,1280.4,33.80456,16.87839,115260.9838,,,,2400,,240,240,96,C25H20Mg1O4,0.020408163,6,6c_Mg_1_Ch,,None,1
SR_dnx_v1-4c_Cu_1_Ch_v2-4c_1anC_Ch_v3-3c_B_Ch_1B_4CN_Ch_ntn_edge_1x1x1,0.39296,0.3192,1.64637,0,0,5.80008,1.19287,13703.92107,,,,1008,,108,96,96,C27Cu1H2N8O4,0.024390244,4,4c_Cu_1_Ch,492,N#CC1:C(C#N):C(:C(C#N):C(C#N):C:1C(:O):O)C1(C2:C:C3:C:C(:C:2)C(C2:C:C4:C:C(:C:2)C(C2:C:C5:C:C(:C:2)C(C2:C:C6:C:C(:C:2)C(C2:C:C(:C:C(:C:2)C4(C2:C(C#N):C(C#N):C(C(:O):O):C(C#N):C:2C#N)C2:C(C#N):C(C#N):C(C(:O):O):C(C#N):C:2C#N)C(C2:C:C1:C:C(:C:2)C(C1:C:C(:C:C(:C:1)C6(C1:C(C#N):C(C#N):C(C(:O):O):C(C#N):C:1C#N)C1:C(C#N):C(C#N):C(C(:O):O):C(C#N):C:1C#N)C(C1:C:C(:C:C(:C:1)C5(C1:C(C#N):C(C#N):C(C(:O):O):C(C#N):C:1C#N)C1:C(C#N):C(C#N):C(C(:O):O):C(C#N):C:1C#N)C3(C1:C(C#N):C(C#N):C(C(:O):O):C(C#N):C:1C#N)C1:C(C#N):C(C#N):C(C(:O):O):C(C#N):C:1C#N)(C1:C(C#N):C(C#N):C(C(:O):O):C(C#N):C:1C#N)C1:C(C#N):C(C#N):C(C(:O):O):C(C#N):C:1C#N)(C1:C(C#N):C(C#N):C(C(:O):O):C(C#N):C:1C#N)C1:C(C#N):C(C#N):C(C(:O):O):C(C#N):C:1C#N)(C1:C(C#N):C(C#N):C(C(:O):O):C(C#N):C:1C#N)C1:C(C#N):C(C#N):C(C(:O):O):C(C#N):C:1C#N)(C1:C(C#N):C(C#N):C(C(:O):O):C(C#N):C:1C#N)C1:C(C#N):C(C#N):C(C(:O):O):C(C#N):C:1C#N)(C1:C(C#N):C(C#N):C(C(:O):O):C(C#N):C:1C#N)C1:C(C#N):C(C#N):C(C(:O):O):C(C#N):C:1C#N)(C1:C(C#N):C(C#N):C(C(:O):O):C(C#N):C:1C#N)C1:C(C#N):C(C#N):C(C(:O):O):C(C#N):C:1C#N)(C1:C(C#N):C(C#N):C(C(:O):O):C(C#N):C:1C#N)C1:C(C#N):C(C#N):C(C(:O):O):C(C#N):C:1C#N)C1:C(C#N):C(C#N):C(C(:O):O):C(C#N):C:1C#N,1
SR_epc_v1-6c_bicyclooctane_Ch_v2-4c_1anC_Ch_v3-4c_V_1_Ch_1B_2F_Ch_1x1x2,0.20643,0.72332,0.706386,2004.55,1415.98,16.75837,12.59006,39663.85223,,,,1352,,144,128,128,C97F24H28O16V4,0.024242424,4,4c_V_1_Ch,,None,1
SR_dnx_v1-4c_Cu_1_Ch_v2-4c_1anC_Ch_v3-3c_B_Ch_1B_4F_Ch_1x1x1,0.15807,0.73222,0.755457,2669.88,2016.98,14.15644,8.52044,42516.2987,,,,1296,,108,96,96,C31Cu1F16H2O4,0.018867925,4,4c_Cu_1_Ch,,None,1
SR_epy_v1-3c_B_Ch_v2-6c_Mg_1_Ch_v3-4c_ethene_Ch_1B_2F_Ch_ntn_edge_1x1x1,0.21277,0.84566,0.352839,4048.45,1428.45,22.69035,15.565,191829.9043,,,,3648,,480,480,192,C21F4H8Mg1O4,0.027027027,6,6c_Mg_1_Ch,,None,1
SR_dmf_v1-4c_bicyclooctane_Ch_v2-3c_Cu_imadazoline_Ch_1B_2NH2_Ch_ntn_edge_1x2x2,0.09077,0.89402,0.310472,5459.59,1695.05,15.34088,11.45561,89068.34746,,,,1312,,192,192,192,C17Cu3H13N8,0.078947368,3,3c_Cu_imadazoline_Ch,"14,96",C1:N:N:C:C:1C1:C:N:N:C:1___NC1:C:C(C2:C:N:N:C:2):C(N):C:C:1C1=CC2(C=C(C3:C:C(N):C(:C:C:3N)C3:C:N:N:C:3)C1C(=C2)C1:C:C(N):C(:C:C:1N)C1:C:N:N:C:1)C1:C:C(N):C(:C:C:1N)C1:C:N:N:C:1,1
SR_dmf_v1-4c_In_1_Ch_v2-3c_B_Ch_1B_2F_Ch_ntn_edge_1x2x2,0.26947,0.74852,0.624155,4130.38,2578,7.7915,6.24622,22129.34841,,,,712,,64,64,64,C52F8H20In1O8,0.011363636,4,4c_In_1_Ch,176,O:C(:O)C1:C:C(F):C(:C:C:1F)C1:C:C2:C:C(:C:1)C1:C:C(:C:C(:C:1)C1:C:C(F):C(:C:C:1F)C(:O):O)C1:C:C(:C:C(:C:1)C1:C:C(F):C(:C:C:1F)C(:O):O)C1:C:C(:C:C(:C:1)C1:C:C(F):C(:C:C:1F)C(:O):O)C1:C:C(:C:C(:C:1)C1:C:C(F):C(:C:C:1F)C(:O):O)C1:C:C(:C:C(:C:1)C1:C:C(F):C(:C:C:1F)C(:O):O)C1:C:C(:C:C(:C:1)C1:C:C(F):C(:C:C:1F)C(:O):O)C1:C:C2:C:C(:C:1)C1:C:C(F):C(:C:C:1F)C(:O):O,1