name,k,VF,density,ASA_grav,ASA_vol,LPD,PLD,volume,,,,N_atoms,,N_metal_containing_bonds,N_metal_nonmetal_bonds,N_metal_linker_bonds,formula,metal_nonmetal_ratio,metal_node_connectivity,metal_node_name,N_atoms_per_linker,linker_SMILES,N_ccs
SR_dni_v1-8c_Co_1_Ch_v2-3c_triazine_Ch_v3-3c_B_Ch_1B_2furan_Ch_1x1x1,0.12626,0.90488,0.225822,5316.5,1200.58,39.07676,11.22483,127157.3143,,,,1590,,120,120,96,C156Co4H60N4O41,0.01532567,8,8c_Co_1_Ch,195,O:C(:O)C1:C:C2:C:C3:O:C(:C:C:3:C:C:2:O:1)C1:C:C(:C:C(:C:1)C1:C:C2:C:C3:O:C(:C:C:3:C:C:2:O:1)C1:N:C(:N:C(:N:1)C1:C:C2:C:C3:O:C(:C:C:3:C:C:2:O:1)C1:C:C(:C:C(:C:1)C1:C:C2:C:C3:O:C(:C:C:3:C:C:2:O:1)C(:O):O)C1:C:C2:C:C3:O:C(:C:C:3:C:C:2:O:1)C(:O):O)C1:C:C2:C:C3:O:C(:C:C:3:C:C:2:O:1)C1:C:C(:C:C(:C:1)C1:C:C2:C:C3:O:C(:C:C:3:C:C:2:O:1)C(:O):O)C1:C:C2:C:C3:O:C(:C:C:3:C:C:2:O:1)C(:O):O)C1:C:C2:C:C3:O:C(:C:C:3:C:C:2:O:1)C(:O):O,1
SR_epa_v1-6c_Mg_1_Ch_v2-6c_B_Ch_v3-4c_pyrene_Ch_1TrU_Ch_ntn_edge_2x2x1,0.58,0.66128,0.775077,2203.15,1707.61,10.32227,6.35664,85000.39893,,,,2736,,1080,1080,432,C17H6Mg3O12,0.085714286,6,6c_Mg_1_Ch,"36,34",O:C(:O)C#CC1:C(C#CC(:O):O):C(C#CC(:O):O):C(C#CC(:O):O):C(C#CC(:O):O):C:1C#CC(:O):O___O:C(:O)C1:C:C(C(:O):O):C2:C:C:C3:C(:C:C(C(:O):O):C4:C:C:C:1:C:2:C:4:3)C(:O):O,1
SR_dni_v1-8c_Co_1_Ch_v2-3c_B_Ch_v3-3c_B_Ch_2B_4H_Ch_1x1x1,0.10742,0.91158,0.185521,6121.1,1135.59,40.99134,13.16463,152019.282,,,,1902,,120,120,96,C184Co4H112O17,0.012779553,8,8c_Co_1_Ch,234,O:C(:O)C1:C:C:C(:C:C:1)C1:C:C:C(:C:C:1)C1:C:C(:C:C(:C:1)C1:C:C:C(:C:C:1)C1:C:C:C(:C:C:1)C1:C:C(:C:C(:C:1)C1:C:C:C(:C:C:1)C1:C:C:C(:C:C:1)C1:C:C(:C:C(:C:1)C1:C:C:C(:C:C:1)C1:C:C:C(:C:C:1)C(:O):O)C1:C:C:C(:C:C:1)C1:C:C:C(:C:C:1)C(:O):O)C1:C:C:C(:C:C:1)C1:C:C:C(:C:C:1)C1:C:C(:C:C(:C:1)C1:C:C:C(:C:C:1)C1:C:C:C(:C:C:1)C(:O):O)C1:C:C:C(:C:C:1)C1:C:C:C(:C:C:1)C(:O):O)C1:C:C:C(:C:C:1)C1:C:C:C(:C:C:1)C(:O):O,1
SR_epp_v1-4c_ethene_Ch_v2-3c_B_Ch_v3-6c_Mg_1_Ch_1B_2Br_Ch_ntn_edge_1x1x1,0.18821,0.84994,0.462234,2863.4,1323.56,34.0901,16.20359,115224.3362,,,,1824,,240,240,96,Br4C21H8Mg1O4,0.027027027,6,6c_Mg_1_Ch,,None,1
SR_dnj_v1-8c_Co_1_Ch_v2-6c_B_Ch_v3-3c_pyrrole_Ch_ntn_edge_1B_2F_Ch_1x1x1,0.19274,0.67388,0.857803,1691.19,1450.71,13.55981,10.20302,21024.24863,,,,846,,120,120,96,C76Co4F16H24N4O17,0.02919708,8,8c_Co_1_Ch,204,O:C(:O)C1:C:C(F):C(:C:C:1F)C1:C:C:C(C2:C:C(F):C(:C:C:2F)C(:O):O):N:1C1:C(:C(:C(:C(:C:1N1:C(:C:C:C:1C1:C:C(F):C(:C:C:1F)C(:O):O)C1:C:C(F):C(:C:C:1F)C(:O):O)N1:C(:C:C:C:1C1:C:C(F):C(:C:C:1F)C(:O):O)C1:C:C(F):C(:C:C:1F)C(:O):O)N1:C(:C:C:C:1C1:C:C(F):C(:C:C:1F)C(:O):O)C1:C:C(F):C(:C:C:1F)C(:O):O)N1:C(:C:C:C:1C1:C:C(F):C(:C:C:1F)C(:O):O)C1:C:C(F):C(:C:C:1F)C(:O):O)N1:C(:C:C:C:1C1:C:C(F):C(:C:C:1F)C(:O):O)C1:C:C(F):C(:C:C:1F)C(:O):O,1
SR_ecf_v1-8c_Zr_1_Ch_1B_2Br_Ch_2x2x2,0.11375,0.67988,1.13347,1385.35,1570.25,15.79471,6.01703,171140.6328,,,,4896,,2304,2304,768,Br4C16H12O16Zr3,0.0625,8,8c_Zr_1_Ch,16,O:C(:O)C1:C:C(Br):C(:C:C:1Br)C(:O):O,1
SR_dnr_v1-4c_B_Ch_v2-4c_Cu_1_Ch_v3-3c_Cu_imadazoline_Ch_1B_2F_Ch_1x1x2,0.07,0.9448,0.163702,5129.16,839.654,51.53472,50.46165,253791.5333,,,,1512,,252,240,240,C61Cu8F12H25N12O8,0.06779661,"3,4","3c_Cu_imadazoline_Ch,4c_Cu_1_Ch","76,20",FC1:C:C(:C(F):C:C:1C1:C:N:N:C:1)C1:C:C(C2:C:C(F):C(:C:C:2F)C2:C:N:N:C:2):C(:C:C:1C1:C:C(F):C(:C:C:1F)C1:C:N:N:C:1)C1:C:C(F):C(:C:C:1F)C1:C:N:N:C:1___O:C(:O)C1:C:C(F):C(:C:C:1F)C1:C:N:N:C:1,1
SR_dnu_v1-4c_ethene_Ch_v2-8c_Mn_1_Ch_v3-4c_ethene_Ch_1B_2CF3_Ch_1x1x1,0.23195,0.5213,1.30466,0,0,13.5887,3.47445,66243.61254,,,,3756,,240,240,192,C148Cl1F96H32Mn4N32,0.012944984,8,8c_Mn_1_Ch,,None,1
SR_eps_v1-3c_pyrrole_Ch_v2-8c_Co_2_Ch_v3-4c_porphyrin_Ch_1B_2F_Ch_ntn_edge_1x1x1,0.20511,0.77578,0.546445,2885.95,1577.01,19.35215,10.62442,21881.14043,,,,585,,60,60,48,C100Cl1Co4F16H42N32,0.020942408,8,8c_Co_2_Ch,190,FC1:C:C(:C(F):C:C:1C1C:N:N:N:1)C1:C:C:C(C2:C:C(F):C(:C:C:2F)C2C:N:N:N:2):N:1C1:C2:C:C:C(:N:2):C(:C2:C:C:C(:[NH]:2):C(:C2:C:C:C(:N:2):C(:C2:C:C:C:1:[NH]:2)N1:C(:C:C:C:1C1:C:C(F):C(:C:C:1F)C1C:N:N:N:1)C1:C:C(F):C(:C:C:1F)C1C:N:N:N:1)N1:C(:C:C:C:1C1:C:C(F):C(:C:C:1F)C1C:N:N:N:1)C1:C:C(F):C(:C:C:1F)C1C:N:N:N:1)N1:C(:C:C:C:1C1:C:C(F):C(:C:C:1F)C1C:N:N:N:1)C1:C:C(F):C(:C:C:1F)C1C:N:N:N:1,1
SR_dnl_v1-4c_porphyrin_Ch_v2-6c_CdZn_1_Ch_v3-3c_triazine_Ch_ntn_edge_1TrU_Ch_1x1x1,0.17136,0.71492,0.747928,2504,1872.81,12.92438,6.81229,67563.26326,,,,2384,,256,256,192,C84Cd3H30N18O13Zn1,0.027586207,6,6c_CdZn_1_Ch,288,O:C(:O)C#CC1:C2:C:C:C(:N:2):C2C3:N:C4:N:C(:N:3)C3:C5:C:C:C(:N:5):C(C#CC(:O):O):C5:C:C:C(:[NH]:5):C(C#CC(:O):O):C5:C:C:C(:N:5):C(C5:N:C6:N:C(:N:5)C5:C7:C:C:C(:N:7):C(C#CC(:O):O):C7:C:C:C(:[NH]:7):C(C#CC(:O):O):C7:C:C:C(:N:7):C(C7:N:C(:N:C(:N:7)C7:C8:C:C:C(:N:8):C(C#CC(:O):O):C8:C:C:C(:[NH]:8):C(C#CC(:O):O):C8:C:C:C(:N:8):C(C8:N:C(:N:C(:N:8)C8:C9:C:C:C(:N:9):C(C#CC(:O):O):C9:C:C:C(:[NH]:9):C(C#CC(:O):O):C9:C:C:C(:N:9):C6:C6:C:C:C:8:[NH]:6)C(:C6:C:C:C(:N:6):C(C#CC(:O):O):C6:C:C:C:1:[NH]:6):C1:C:C:C:2:[NH]:1):C1:C:C:C:7:[NH]:1)C1:C2:C:C:C(:N:2):C(C#CC(:O):O):C2:C:C:C(:[NH]:2):C(C#CC(:O):O):C2:C:C:C(:N:2):C4:C2:C:C:C:1:[NH]:2):C1:C:C:C:5:[NH]:1):C1:C:C:C:3:[NH]:1,1
SR_eps_v1-3c_pyrrole_Ch_v2-8c_Zr_1_Ch_v3-4c_porphyrin_Ch_2TrU_Ch_1x1x1,0.07507,0.88782,0.277904,5221.36,1451.04,30.75974,11.01045,41420.01684,,,,516,,144,144,48,C46H17N4O16Zr3,0.036144578,8,8c_Zr_1_Ch,134,O:C(:O)C#CC#CC1:C:C:C(C#CC#CC(:O):O):N:1C#CC#CC1:C2:C:C:C(:N:2):C(C#CC#CN2:C(C#CC#CC(:O):O):C:C:C:2C#CC#CC(:O):O):C2:C:C:C(:[NH]:2):C(C#CC#CN2:C(C#CC#CC(:O):O):C:C:C:2C#CC#CC(:O):O):C2:C:C:C(:N:2):C(C#CC#CN2:C(C#CC#CC(:O):O):C:C:C:2C#CC#CC(:O):O):C2:C:C:C:1:[NH]:2,1
SR_edq_v1-3c_B_Ch_v2-6c_Fe_1_Ch_1B_2CH3_Ch_1x1x1,0.12011,0.80224,0.404644,4851.78,1963.25,15.18059,8.92419,47734.47236,,,,1352,,120,120,96,C84Fe3H69O13,0.018072289,6,6c_Fe_1_Ch,110,CC1:C:C(C2:C:C(:C:C(:C:2)C2:C:C(C):C(:C:C:2C)C2:C:C(:C:C(:C:2)C2:C:C(C):C(:C:C:2C)C(:O):O)C2:C:C(C):C(:C:C:2C)C(:O):O)C2:C:C(C):C(:C:C:2C)C(:O):O):C(C):C:C:1C(:O):O,1
SR_eps_v1-3c_triazine_Ch_v2-8c_Co_2_Ch_v3-4c_porphyrin_Ch_1B_2CF3_Ch_ntn_edge_2x2x2,0.18512,0.56152,1.14517,0,0,12.67845,2.55242,79268.12508,,,,4200,,480,480,384,C80Cl1Co4F24H26N40,0.023391813,8,8c_Co_2_Ch,170,FC(F)(F)C1:C:C(:C(:C:C:1C1:N:C(:N:C(:N:1)C1C:N:N:N:1)C1C:N:N:N:1)C(F)(F)F)C1:C2:C:C:C(:N:2):C(C2:C:C(:C(:C:C:2C(F)(F)F)C2:N:C(:N:C(:N:2)C2C:N:N:N:2)C2C:N:N:N:2)C(F)(F)F):C2:C:C:C(:[NH]:2):C(C2:C:C(:C(:C:C:2C(F)(F)F)C2:N:C(:N:C(:N:2)C2C:N:N:N:2)C2C:N:N:N:2)C(F)(F)F):C2:C:C:C(:N:2):C(C2:C:C(:C(:C:C:2C(F)(F)F)C2:N:C(:N:C(:N:2)C2C:N:N:N:2)C2C:N:N:N:2)C(F)(F)F):C2:C:C:C:1:[NH]:2,1
SR_ecg_v1-8c_Mn_1_Ch_1B_2NH2_Ch_1x1x1,0.13636,0.73564,0.661117,2900.36,1917.47,14.42644,8.61953,41920.66492,,,,1212,,240,240,192,C32Cl1H24Mn4N40,0.041237113,8,8c_Mn_1_Ch,24,NC1:C:C(C2:N:N:N:N:2):C(N):C:C:1C1:N:N:N:N:1,1
SR_epq_v1-4c_Ni_1_Ch_v2-6c_B_Ch_v3-3c_B_Ch_1B_2CH3_Ch_ntn_edge_1x1x1,0.30902,0.64158,0.80162,1185.59,950.394,21.56341,12.37894,20687.73751,,,,1080,,108,96,96,C23H17Ni1O4,0.022727273,4,4c_Ni_1_Ch,,None,1
SR_eps_v1-3c_B_Ch_v2-8c_Co_2_Ch_v3-4c_porphyrin_Ch_1B_2CF3_Ch_1x1x1,0.07537,0.80018,0.520453,3458.64,1800.06,22.58027,8.78875,37898.43799,,,,945,,60,60,48,C156Cl1Co4F72H54N28,0.012861736,8,8c_Co_2_Ch,310,FC(F)(F)C1:C:C(C2:C:C(:C:C(:C:2)C2:C:C(:C(:C:C:2C(F)(F)F)C2:C3:C:C:C(:N:3):C(C3:C:C(:C(:C:C:3C(F)(F)F)C3:C:C(:C:C(:C:3)C3:C:C(:C(:C:C:3C(F)(F)F)C3C:N:N:N:3)C(F)(F)F)C3:C:C(:C(:C:C:3C(F)(F)F)C3C:N:N:N:3)C(F)(F)F)C(F)(F)F):C3:C:C:C(:[NH]:3):C(C3:C:C(:C(:C:C:3C(F)(F)F)C3:C:C(:C:C(:C:3)C3:C:C(:C(:C:C:3C(F)(F)F)C3C:N:N:N:3)C(F)(F)F)C3:C:C(:C(:C:C:3C(F)(F)F)C3C:N:N:N:3)C(F)(F)F)C(F)(F)F):C3:C:C:C(:N:3):C(C3:C:C(:C(:C:C:3C(F)(F)F)C3:C:C(:C:C(:C:3)C3:C:C(:C(:C:C:3C(F)(F)F)C3C:N:N:N:3)C(F)(F)F)C3:C:C(:C(:C:C:3C(F)(F)F)C3C:N:N:N:3)C(F)(F)F)C(F)(F)F):C3:C:C:C:2:[NH]:3)C(F)(F)F)C2:C:C(:C(:C:C:2C(F)(F)F)C2C:N:N:N:2)C(F)(F)F):C(:C:C:1C1C:N:N:N:1)C(F)(F)F,1
SR_eps_v1-3c_pyrrole_Ch_v2-8c_Zr_1_Ch_v3-4c_porphyrin_Ch_1B_2NO2_Ch_ntn_edge_2x2x2,0.21169,0.50496,1.34581,0,0,12.44918,1.37279,71034.7512,,,,4320,,1152,1152,384,C34H21N8O24Zr3,0.034482759,8,8c_Zr_1_Ch,142,O:C(:O)C1:C:C:C(C(:O):O):N:1C1:C:C(:C(:C:C:1N(:O):O)C1:C2:C:C:C(:N:2):C(C2:C:C(:C(:C:C:2N(:O):O)N2:C(:C:C:C:2C(:O):O)C(:O):O)N(:O):O):C2:C:C:C(:[NH]:2):C(C2:C:C(:C(:C:C:2N(:O):O)N2:C(:C:C:C:2C(:O):O)C(:O):O)N(:O):O):C2:C:C:C(:N:2):C(C2:C:C(:C(:C:C:2N(:O):O)N2:C(:C:C:C:2C(:O):O)C(:O):O)N(:O):O):C2:C:C:C:1:[NH]:2)N(:O):O,1
SR_dnl_v1-4c_porphyrin_Ch_v2-6c_CdZn_1_Ch_v3-3c_B_Ch_ntn_edge_1x1x1,0.23386,0.59568,1.08945,1209.3,1317.47,8.69702,3.79322,42723.59612,,,,2288,,256,256,192,C78Cd3H36N12O13Zn1,0.028776978,6,6c_CdZn_1_Ch,276,O:C(:O)C1:C2:C:C:C(:N:2):C2C3:C:C4:C:C(:C:3)C3:C5:C:C:C(:N:5):C(C(:O):O):C5:C:C:C(:[NH]:5):C(C(:O):O):C5:C:C:C(:N:5):C(C5:C:C6:C:C(:C:5)C5:C7:C:C:C(:N:7):C(C(:O):O):C7:C:C:C(:[NH]:7):C(C(:O):O):C7:C:C:C(:N:7):C(C7:C:C(:C:C(:C:7)C7:C8:C:C:C(:N:8):C(C(:O):O):C8:C:C:C(:[NH]:8):C(C(:O):O):C8:C:C:C(:N:8):C(C8:C:C(:C:C(:C:8)C8:C9:C:C:C(:N:9):C(C(:O):O):C9:C:C:C(:[NH]:9):C(C(:O):O):C9:C:C:C(:N:9):C6:C6:C:C:C:8:[NH]:6)C(:C6:C:C:C(:N:6):C(C(:O):O):C6:C:C:C:1:[NH]:6):C1:C:C:C:2:[NH]:1):C1:C:C:C:7:[NH]:1)C1:C2:C:C:C(:N:2):C(C(:O):O):C2:C:C:C(:[NH]:2):C(C(:O):O):C2:C:C:C(:N:2):C4:C2:C:C:C:1:[NH]:2):C1:C:C:C:5:[NH]:1):C1:C:C:C:3:[NH]:1,1
SR_epq_v1-4c_Cu_1_Ch_v2-6c_B_Ch_v3-3c_B_Ch_1TrU_Ch_1B_4H_Ch_1x1x1,0.51983,0.76018,0.601532,2829.69,1702.15,19.81985,8.25714,22311.76622,,,,648,,108,96,96,C17Cu1H5O4,0.038461538,4,4c_Cu_1_Ch,,None,1
SR_ecg_v1-8c_Mn_1_Ch_1B_2SH_Ch_1x1x1,0.15401,0.71768,0.73304,2591.54,1899.7,13.48309,9.17967,41853.34652,,,,1116,,240,240,192,C32Cl1H16Mn4N32S8,0.04494382,8,8c_Mn_1_Ch,22,SC1:C:C(C2:N:N:N:N:2):C(S):C:C:1C1:N:N:N:N:1,1
SR_dnj_v1-8c_Co_1_Ch_v2-6c_B_Ch_v3-3c_pyrrole_Ch_1B_2F_Ch_ntn_edge_1x1x1,0.18426,0.67388,0.857803,1691.19,1450.71,13.55981,10.20302,21024.24863,,,,846,,120,120,96,C76Co4F16H24N4O17,0.02919708,8,8c_Co_1_Ch,204,O:C(:O)C1:C:C(F):C(:C:C:1F)C1:C:C:C(C2:C:C(F):C(:C:C:2F)C(:O):O):N:1C1:C(:C(:C(:C(:C:1N1:C(:C:C:C:1C1:C:C(F):C(:C:C:1F)C(:O):O)C1:C:C(F):C(:C:C:1F)C(:O):O)N1:C(:C:C:C:1C1:C:C(F):C(:C:C:1F)C(:O):O)C1:C:C(F):C(:C:C:1F)C(:O):O)N1:C(:C:C:C:1C1:C:C(F):C(:C:C:1F)C(:O):O)C1:C:C(F):C(:C:C:1F)C(:O):O)N1:C(:C:C:C:1C1:C:C(F):C(:C:C:1F)C(:O):O)C1:C:C(F):C(:C:C:1F)C(:O):O)N1:C(:C:C:C:1C1:C:C(F):C(:C:C:1F)C(:O):O)C1:C:C(F):C(:C:C:1F)C(:O):O,1
SR_ecg_v1-8c_Mn_1_Ch_1B_2CF3_Ch_1x1x1,0.13914,0.68734,0.878506,2039.91,1792.07,12.63848,7.811,42438.54613,,,,1308,,240,240,192,C40Cl1F24H8Mn4N32,0.038095238,8,8c_Mn_1_Ch,26,FC(F)(F)C1:C:C(C2:N:N:N:N:2):C(:C:C:1C1:N:N:N:N:1)C(F)(F)F,1
SR_dna_v1-8c_Co_1_Ch_v2-6c_B_Ch_v3-3c_B_Ch_1B_2CH3_Ch_1x1x1,0.12727,0.80748,0.403097,3185.23,1283.96,32.11027,13.21785,108857.7985,,,,3132,,240,240,192,C132Co4H108O17,0.015564202,8,8c_Co_1_Ch,384,CC1:C:C(C2:C:C(:C:C(:C:2)C2:C:C(C):C(:C:C:2C)C2:C(C3:C:C(C):C(:C:C:3C)C3:C:C(:C:C(:C:3)C3:C:C(C):C(:C:C:3C)C(:O):O)C3:C:C(C):C(:C:C:3C)C(:O):O):C(C3:C:C(C):C(:C:C:3C)C3:C:C(:C:C(:C:3)C3:C:C(C):C(:C:C:3C)C(:O):O)C3:C:C(C):C(:C:C:3C)C(:O):O):C(C3:C:C(C):C(:C:C:3C)C3:C:C(:C:C(:C:3)C3:C:C(C):C(:C:C:3C)C(:O):O)C3:C:C(C):C(:C:C:3C)C(:O):O):C(C3:C:C(C):C(:C:C:3C)C3:C:C(:C:C(:C:3)C3:C:C(C):C(:C:C:3C)C(:O):O)C3:C:C(C):C(:C:C:3C)C(:O):O):C:2C2:C:C(C):C(:C:C:2C)C2:C:C(:C:C(:C:2)C2:C:C(C):C(:C:C:2C)C(:O):O)C2:C:C(C):C(:C:C:2C)C(:O):O)C2:C:C(C):C(:C:C:2C)C(:O):O):C(C):C:C:1C(:O):O,1
SR_dnl_v1-4c_porphyrin_Ch_v2-6c_CdZn_1_Ch_v3-3c_triazine_Ch_1DoU_Ch_1x1x1,0.14717,0.77508,0.563536,3849.87,2169.54,13.65246,6.83485,97604.99562,,,,2960,,256,256,192,C96Cd3H54N18O13Zn1,0.022099448,6,6c_CdZn_1_Ch,360,O:C(:O)C=CC1:C2:C:C:C(:N:2):C2C=CC3:N:C4C=CC5:C6:C:C:C(:N:6):C(C=CC(:O):O):C6:C:C:C(:[NH]:6):C(C=CC(:O):O):C6:C:C:C(:N:6):C(C=CC6:N:C7C=CC8:C9:C:C:C(:N:9):C(C=CC(:O):O):C9:C:C:C(:[NH]:9):C(C=CC(:O):O):C9:C:C:C(:N:9):C(C=CC9:N:C(C=CC(:C%10:C:C:C(:N:%10):C(C=CC(:O):O):C%10:C:C:C:1:[NH]:%10):C1:C:C:C:2:[NH]:1):N:C(C=CC1:C2:C:C:C(:N:2):C(C=CC(:O):O):C2:C:C:C(:[NH]:2):C(C=CC(:O):O):C2:C:C:C(:N:2):C(C=CC2:N:C(C=CC%10:C%11:C:C:C(:N:%11):C(C=CC(:O):O):C%11:C:C:C(:[NH]:%11):C(C=CC(:O):O):C%11:C:C:C(:N:%11):C(C=CC(:N:3):N:4):C3:C:C:C:%10:[NH]:3):N:C(C=CC3:C4:C:C:C(:N:4):C(C=CC(:O):O):C4:C:C:C(:[NH]:4):C(C=CC(:O):O):C4:C:C:C(:N:4):C(C=CC(:N:6):N:7):C4:C:C:C:3:[NH]:4):N:2):C2:C:C:C:1:[NH]:2):N:9):C1:C:C:C:8:[NH]:1):C1:C:C:C:5:[NH]:1,1
SR_dpd_v1-4c_bicyclooctane_Ch_v2-4c_Ni_1_Ch_v3-4c_1anC_Ch_2B_2OH_Ch_1x1x1,0.06649,0.90106,0.226976,5355.47,1215.56,34.43472,17.32655,278112.497,,,,3800,,216,192,192,C237H144Ni6O88,0.012793177,4,4c_Ni_1_Ch,469,O:C(:O)C1:C:C(O):C(:C:C:1O)C1:C:C(O):C(:C:C:1O)C1=CC2(C=C(C3:C:C(O):C(:C:C:3O)C3:C:C(O):C(:C:C:3O)C(:O):O)C1C(=C2)C1:C:C(O):C(:C:C:1O)C1:C:C(O):C(:C:C:1O)C(:O):O)C1:C:C(O):C(:C:C:1O)C1:C:C(O):C(:C:C:1O)C(C1:C:C(O):C(:C:C:1O)C1:C:C(O):C(:C:C:1O)C12C=C(C3:C:C(O):C(:C:C:3O)C3:C:C(O):C(:C:C:3O)C(:O):O)C(C(=C1)C1:C:C(O):C(:C:C:1O)C1:C:C(O):C(:C:C:1O)C(:O):O)C(=C2)C1:C:C(O):C(:C:C:1O)C1:C:C(O):C(:C:C:1O)C(:O):O)(C1:C:C(O):C(:C:C:1O)C1:C:C(O):C(:C:C:1O)C12C=C(C3:C:C(O):C(:C:C:3O)C3:C:C(O):C(:C:C:3O)C(:O):O)C(C(=C1)C1:C:C(O):C(:C:C:1O)C1:C:C(O):C(:C:C:1O)C(:O):O)C(=C2)C1:C:C(O):C(:C:C:1O)C1:C:C(O):C(:C:C:1O)C(:O):O)C1:C:C(O):C(:C:C:1O)C1:C:C(O):C(:C:C:1O)C12C=C(C3:C:C(O):C(:C:C:3O)C3:C:C(O):C(:C:C:3O)C(:O):O)C(C(=C1)C1:C:C(O):C(:C:C:1O)C1:C:C(O):C(:C:C:1O)C(:O):O)C(=C2)C1:C:C(O):C(:C:C:1O)C1:C:C(O):C(:C:C:1O)C(:O):O,1
SR_eps_v1-3c_B_Ch_v2-8c_Co_2_Ch_v3-4c_porphyrin_Ch_1B_2CH3_Ch_ntn_edge_2x2x2,0.19216,0.5947,0.916161,0,0,10.81607,2.68476,79712.04886,,,,4488,,480,480,384,C92Cl1Co4H62N28,0.021857923,8,8c_Co_2_Ch,182,CC1:C:C(:C(C):C:C:1C1:C:C(:C:C(:C:1)C1C:N:N:N:1)C1C:N:N:N:1)C1:C2:C:C:C(:N:2):C(C2:C:C(C):C(:C:C:2C)C2:C:C(:C:C(:C:2)C2C:N:N:N:2)C2C:N:N:N:2):C2:C:C:C(:[NH]:2):C(C2:C:C(C):C(:C:C:2C)C2:C:C(:C:C(:C:2)C2C:N:N:N:2)C2C:N:N:N:2):C2:C:C:C(:N:2):C(C2:C:C(C):C(:C:C:2C)C2:C:C(:C:C(:C:2)C2C:N:N:N:2)C2C:N:N:N:2):C2:C:C:C:1:[NH]:2,1
SR_epa_v1-6c_Mg_1_Ch_v2-6c_Mg_1_Ch_v3-4c_B_Ch_1TrU_Ch_1x1x1,0.46777,0.7498,0.579465,4041.86,2342.12,13.51883,5.78483,33597.67471,,,,756,,360,360,144,C17H5Mg4O16,0.105263158,6,6c_Mg_1_Ch,"8,28",O:C(:O)C#CC(:O):O___O:C(:O)C#CC1:C:C(C#CC(:O):O):C(C#CC(:O):O):C:C:1C#CC(:O):O,1
SR_eft_v1-4c_porphyrin_Ch_v2-8c_Mn_1_Ch_v3-3c_triazine_Ch_ntn_edge_1B_2furan_Ch_1x1x3,0.22117,0.83288,0.416576,4401.77,1833.67,15.23427,12.38269,24426.82789,,,,501,,60,60,48,C80Cl1H26Mn4N48O8,0.024539877,8,8c_Mn_1_Ch,162,C1:C:C2:N:C:1:C(C1:C:C3:C:C4:O:C(:C:C:4:C:C:3:O:1)C1:N:C(:N:C(:N:1)C1:N:N:N:N:1)C1:N:N:N:N:1):C1:C:C:C(:[NH]:1):C(C1:C:C3:C:C4:O:C(:C:C:4:C:C:3:O:1)C1:N:C(:N:C(:N:1)C1:N:N:N:N:1)C1:N:N:N:N:1):C1:C:C:C(:N:1):C(C1:C:C3:C:C4:O:C(:C:C:4:C:C:3:O:1)C1:N:C(:N:C(:N:1)C1:N:N:N:N:1)C1:N:N:N:N:1):C1:C:C:C(:[NH]:1):C:2C1:C:C2:C:C3:O:C(:C:C:3:C:C:2:O:1)C1:N:C(:N:C(:N:1)C1:N:N:N:N:1)C1:N:N:N:N:1,1
SR_eps_v1-3c_triazine_Ch_v2-8c_Co_1_Ch_v3-4c_porphyrin_Ch_1B_2DoU_Ch_1x1x1,0.08783,0.91306,0.181877,6936.58,1261.61,32.99428,16.01015,75613.27528,,,,909,,60,60,48,C160Co4H106N16O17,0.013377926,8,8c_Co_1_Ch,298,O:C(:O)C=CC1:C:C:C(C=CC2:N:C(C=CC3:C:C:C(C=CC(:O):O):C:C:3):N:C(C=CC3:C:C:C(C=CC4:C5:C:C:C(:N:5):C(C=CC5:C:C:C(C=CC6:N:C(C=CC7:C:C:C(C=CC(:O):O):C:C:7):N:C(C=CC7:C:C:C(C=CC(:O):O):C:C:7):N:6):C:C:5):C5:C:C:C(:[NH]:5):C(C=CC5:C:C:C(C=CC6:N:C(C=CC7:C:C:C(C=CC(:O):O):C:C:7):N:C(C=CC7:C:C:C(C=CC(:O):O):C:C:7):N:6):C:C:5):C5:C:C:C(:N:5):C(C=CC5:C:C:C(C=CC6:N:C(C=CC7:C:C:C(C=CC(:O):O):C:C:7):N:C(C=CC7:C:C:C(C=CC(:O):O):C:C:7):N:6):C:C:5):C5:C:C:C:4:[NH]:5):C:C:3):N:2):C:C:1,1
SR_eft_v1-4c_porphyrin_Ch_v2-8c_Co_1_Ch_v3-3c_triazine_Ch_1B_2furan_Ch_1x1x2,0.09955,0.90296,0.236618,5474.58,1295.38,21.39739,16.23198,43482.96441,,,,558,,40,40,32,C160Co4H58N16O41,0.014545455,8,8c_Co_1_Ch,274,O:C(:O)C1:C:C2:C:C3:O:C(:C:C:3:C:C:2:O:1)C1:N:C(:N:C(:N:1)C1:C:C2:C:C3:O:C(:C:C:3:C:C:2:O:1)C1:C2:C:C:C(:N:2):C(C2:C:C3:C:C4:O:C(:C:C:4:C:C:3:O:2)C2:N:C(:N:C(:N:2)C2:C:C3:C:C4:O:C(:C:C:4:C:C:3:O:2)C(:O):O)C2:C:C3:C:C4:O:C(:C:C:4:C:C:3:O:2)C(:O):O):C2:C:C:C(:[NH]:2):C(C2:C:C3:C:C4:O:C(:C:C:4:C:C:3:O:2)C2:N:C(:N:C(:N:2)C2:C:C3:C:C4:O:C(:C:C:4:C:C:3:O:2)C(:O):O)C2:C:C3:C:C4:O:C(:C:C:4:C:C:3:O:2)C(:O):O):C2:C:C:C(:N:2):C(C2:C:C3:C:C4:O:C(:C:C:4:C:C:3:O:2)C2:N:C(:N:C(:N:2)C2:C:C3:C:C4:O:C(:C:C:4:C:C:3:O:2)C(:O):O)C2:C:C3:C:C4:O:C(:C:C:4:C:C:3:O:2)C(:O):O):C2:C:C:C:1:[NH]:2)C1:C:C2:C:C3:O:C(:C:C:3:C:C:2:O:1)C(:O):O,1
SR_eft_v1-4c_porphyrin_Ch_v2-8c_Co_2_Ch_v3-3c_triazine_Ch_1B_2furan_Ch_1x1x2,0.11911,0.9114,0.208839,5826.45,1216.79,22.8333,18.39084,52478.58209,,,,606,,40,40,32,C168Cl1Co4H66N40O24,0.013377926,8,8c_Co_2_Ch,298,C1:N:N:N:C1C1:C:C2:C:C3:O:C(:C:C:3:C:C:2:O:1)C1:N:C(:N:C(:N:1)C1:C:C2:C:C3:O:C(:C:C:3:C:C:2:O:1)C1:C2:C:C:C(:N:2):C(C2:C:C3:C:C4:O:C(:C:C:4:C:C:3:O:2)C2:N:C(:N:C(:N:2)C2:C:C3:C:C4:O:C(:C:C:4:C:C:3:O:2)C2C:N:N:N:2)C2:C:C3:C:C4:O:C(:C:C:4:C:C:3:O:2)C2C:N:N:N:2):C2:C:C:C(:[NH]:2):C(C2:C:C3:C:C4:O:C(:C:C:4:C:C:3:O:2)C2:N:C(:N:C(:N:2)C2:C:C3:C:C4:O:C(:C:C:4:C:C:3:O:2)C2C:N:N:N:2)C2:C:C3:C:C4:O:C(:C:C:4:C:C:3:O:2)C2C:N:N:N:2):C2:C:C:C(:N:2):C(C2:C:C3:C:C4:O:C(:C:C:4:C:C:3:O:2)C2:N:C(:N:C(:N:2)C2:C:C3:C:C4:O:C(:C:C:4:C:C:3:O:2)C2C:N:N:N:2)C2:C:C3:C:C4:O:C(:C:C:4:C:C:3:O:2)C2C:N:N:N:2):C2:C:C:C:1:[NH]:2)C1:C:C2:C:C3:O:C(:C:C:3:C:C:2:O:1)C1C:N:N:N:1,1
SR_eps_v1-3c_pyrrole_Ch_v2-8c_Co_1_Ch_v3-4c_porphyrin_Ch_ntn_edge_1B_2NH2_Ch_2x2x2,0.38645,0.39684,1.47789,0,0,6.24418,2.07644,42995.33583,,,,3528,,480,480,384,C68Co4H42N16O17,0.027972028,8,8c_Co_1_Ch,142,NC1:C:C(:C(N):C:C:1C1:C2:C:C:C(:N:2):C(C2:C:C(N):C(:C:C:2N)N2:C(:C:C:C:2C(:O):O)C(:O):O):C2:C:C:C(:[NH]:2):C(C2:C:C(N):C(:C:C:2N)N2:C(:C:C:C:2C(:O):O)C(:O):O):C2:C:C:C(:N:2):C(C2:C:C(N):C(:C:C:2N)N2:C(:C:C:C:2C(:O):O)C(:O):O):C2:C:C:C:1:[NH]:2)N1:C(:C:C:C:1C(:O):O)C(:O):O,1
SR_dna_v1-8c_Co_1_Ch_v2-6c_B_Ch_v3-3c_B_Ch_ntn_edge_1x1x1,0.49379,0.5868,1.14954,1041.32,1197.04,17.18234,4.41609,16505.86359,,,,828,,240,240,192,C36Co4H12O17,0.061538462,8,8c_Co_1_Ch,96,O:C(:O)C1:C:C(:C:C(:C:1)C1:C(C2:C:C(:C:C(:C:2)C(:O):O)C(:O):O):C(C2:C:C(:C:C(:C:2)C(:O):O)C(:O):O):C(C2:C:C(:C:C(:C:2)C(:O):O)C(:O):O):C(C2:C:C(:C:C(:C:2)C(:O):O)C(:O):O):C:1C1:C:C(:C:C(:C:1)C(:O):O)C(:O):O)C(:O):O,1
SR_eft_v1-4c_porphyrin_Ch_v2-8c_Co_1_Ch_v3-3c_triazine_Ch_ntn_edge_1B_2NO2_Ch_2x2x2,0.18156,0.69856,0.773909,2246.38,1738.49,10.7134,6.76158,43794.3929,,,,1592,,160,160,128,C88Co4H26N32O49,0.020512821,8,8c_Co_1_Ch,194,O:C(:O)C1:C:C(:C(:C:C:1N(:O):O)C1:N:C(:N:C(:N:1)C1:C2:C:C:C(:N:2):C(C2:N:C(:N:C(:N:2)C2:C:C(:C(:C:C:2N(:O):O)C(:O):O)N(:O):O)C2:C:C(:C(:C:C:2N(:O):O)C(:O):O)N(:O):O):C2:C:C:C(:[NH]:2):C(C2:N:C(:N:C(:N:2)C2:C:C(:C(:C:C:2N(:O):O)C(:O):O)N(:O):O)C2:C:C(:C(:C:C:2N(:O):O)C(:O):O)N(:O):O):C2:C:C:C(:N:2):C(C2:N:C(:N:C(:N:2)C2:C:C(:C(:C:C:2N(:O):O)C(:O):O)N(:O):O)C2:C:C(:C(:C:C:2N(:O):O)C(:O):O)N(:O):O):C2:C:C:C:1:[NH]:2)C1:C:C(:C(:C:C:1N(:O):O)C(:O):O)N(:O):O)N(:O):O,1
SR_dmc_v1-3c_Cu_imadazoline_Ch_v2-4c_1anC_Ch_1TrU_Ch_2x1x2,0.15413,0.87144,0.392951,5012.19,1969.55,12.95818,11.82345,32898.77852,,,,512,,96,96,96,C17Cu3H6N6,0.103448276,3,3c_Cu_imadazoline_Ch,58,C(#CC(C#CC1:C:N:N:C:1)(C#CC1:C:N:N:C:1)C#CC(C#CC1:C:N:N:C:1)(C#CC1:C:N:N:C:1)C#CC1:C:N:N:C:1)C1:C:N:N:C:1,1
SR_eps_v1-3c_pyrrole_Ch_v2-8c_Co_2_Ch_v3-4c_porphyrin_Ch_2TrU_Ch_1x1x1,0.20874,0.90634,0.212177,6271.69,1330.71,31.81363,12.09599,45706.07855,,,,489,,60,60,48,C100Cl1Co4H26N32,0.025157233,8,8c_Co_2_Ch,158,C(C#CC1:C:C:C(C#CC#CC2C:N:N:N:2):N:1C#CC#CC1:C2:C:C:C(:N:2):C(C#CC#CN2:C(C#CC#CC3C:N:N:N:3):C:C:C:2C#CC#CC2C:N:N:N:2):C2:C:C:C(:[NH]:2):C(C#CC#CN2:C(C#CC#CC3C:N:N:N:3):C:C:C:2C#CC#CC2C:N:N:N:2):C2:C:C:C(:N:2):C(C#CC#CN2:C(C#CC#CC3C:N:N:N:3):C:C:C:2C#CC#CC2C:N:N:N:2):C2:C:C:C:1:[NH]:2)#CC1C:N:N:N:1,1
SR_dnl_v1-4c_Ni_1_Ch_v2-6c_Ni_1_Ch_v3-3c_B_Ch_1B_4CN_Ch_1x1x1,0.14204,0.71,0.725881,2665.88,1935.11,12.07086,6.29841,134587.5926,,,,4064,,720,672,576,C75H4N24Ni5O19,0.040983607,"4,6","4c_Ni_1_Ch,6c_Ni_1_Ch","20,60",N#CC1:C(C#N):C(C(:O):O):C(C#N):C(C#N):C:1C(:O):O___N#CC1:C(C#N):C(C2:C:C(:C:C(:C:2)C2:C(C#N):C(C#N):C(C(:O):O):C(C#N):C:2C#N)C2:C(C#N):C(C#N):C(C(:O):O):C(C#N):C:2C#N):C(C#N):C(C#N):C:1C(:O):O,1
SR_dpd_v1-4c_1anC_Ch_v2-4c_Cu_1_Ch_v3-4c_1anC_Ch_2B_2CF3_Ch_1x1x1,0.06369,0.81678,0.510777,2767.88,1413.77,27.60092,13.00623,201737.4639,,,,4472,,216,192,192,C273Cu6F192H64O24,0.01084991,4,4c_Cu_1_Ch,,None,1