name,k,VF,density,ASA_grav,ASA_vol,LPD,PLD,volume,,,,N_atoms,,N_metal_containing_bonds,N_metal_nonmetal_bonds,N_metal_linker_bonds,formula,metal_nonmetal_ratio,metal_node_connectivity,metal_node_name,N_atoms_per_linker,linker_SMILES,N_ccs
SR_acs_v1-6c_Fe_1_Ch_2B_1DoU_Ch_2x2x2,0.31563,0.8936,0.240958,5937.46,1430.68,20.60493,18.62971,123838.7865,,,,1504,,240,240,192,C48Fe3H30O13,0.032967033,6,6c_Fe_1_Ch,30,O:C(:O)C1:C:C:C(C=CC2:C:C:C(:C:C:2)C(:O):O):C:C:1,1
SR_ahq_v1-6c_Ni_1_Ch_v2-6c_B_Ch_v3-4c_Ni_1_Ch_ntn_edge_1B_2F_Ch_2x2x1,0.2827,0.64116,1.11209,1633.43,1816.51,7.34294,4.7095,44794.39379,,,,1608,,540,504,432,C30F6H7Ni5O19,0.080645161,"4,6","4c_Ni_1_Ch,6c_Ni_1_Ch","6,84",O:C(:O)C(:O):O___O:C(:O)C1:C:C(F):C(:C:C:1F)C1:C(C2:C:C(F):C(:C:C:2F)C(:O):O):C(C2:C:C(F):C(:C:C:2F)C(:O):O):C(C2:C:C(F):C(:C:C:2F)C(:O):O):C(C2:C:C(F):C(:C:C:2F)C(:O):O):C:1C1:C:C(F):C(:C:C:1F)C(:O):O,1
SR_ahq_v1-6c_Ni_1_Ch_v2-6c_B_Ch_v3-4c_Ni_1_Ch_ntn_edge_1B_2CN_Ch_2x2x1,0.30073,0.59614,1.15312,930.142,1072.57,6.12482,3.75618,44977.19477,,,,1752,,540,504,432,C36H7N6Ni5O19,0.073529412,"4,6","4c_Ni_1_Ch,6c_Ni_1_Ch","96,6",N#CC1:C:C(:C(C#N):C:C:1C(:O):O)C1:C(C2:C:C(C#N):C(:C:C:2C#N)C(:O):O):C(C2:C:C(C#N):C(:C:C:2C#N)C(:O):O):C(C2:C:C(C#N):C(:C:C:2C#N)C(:O):O):C(C2:C:C(C#N):C(:C:C:2C#N)C(:O):O):C:1C1:C:C(C#N):C(:C:C:1C#N)C(:O):O___O:C(:O)C(:O):O,1
SR_ahr_v1-6c_CdZn_1_Ch_v2-6c_B_Ch_v3-3c_pyrrole_Ch_2B_2OH_Ch_ntn_edge_2x2x2,0.42074,0.3664,1.61743,0,0,4.53505,1.49988,68486.54494,,,,5160,,384,384,288,C108Cd3H60N6O37Zn1,0.018957346,6,6c_CdZn_1_Ch,,None,1
SR_acs_v1-6c_Fe_1_Ch_1B_4CN_Ch_2x2x2,0.75459,0.65378,0.86423,1854.18,1602.44,8.13857,7.69541,34664.03747,,,,1024,,240,240,192,C36Fe3N12O13,0.049180328,6,6c_Fe_1_Ch,20,N#CC1:C(C#N):C(C(:O):O):C(C#N):C(C#N):C:1C(:O):O,1
SR_ahr_v1-6c_CdZn_1_Ch_v2-6c_B_Ch_v3-3c_B_Ch_2B_4F_Ch_1x1x1,0.09633,0.886,0.315875,4373.76,1381.56,24.31932,19.56814,102948.3442,,,,1149,,48,48,36,C228Cd3F120H18O13Zn1,0.01055409,6,6c_CdZn_1_Ch,378,O:C(:O)C1:C(F):C(F):C(:C(F):C:1F)C1:C(F):C(F):C(C2:C:C3:C:C(:C:2)C2:C(F):C(F):C(:C(F):C:2F)C2:C(F):C(F):C(:C(F):C:2F)C2:C4C5:C(F):C(F):C(:C(F):C:5F)C5:C(F):C(F):C(C6:C:C(:C:C(:C:6)C6:C(F):C(F):C(:C(F):C:6F)C6:C(F):C(F):C(C7:C:C(:C:C(:C:7)C7:C(F):C(F):C(:C(F):C:7F)C7:C(F):C(F):C(:C(F):C:7F)C7:C:2C2:C(F):C(F):C(:C(F):C:2F)C2:C(F):C(F):C(C8:C:C(:C:C(:C:8)C8:C(F):C(F):C(:C(F):C:8F)C8:C(F):C(F):C(C9:C:C(:C:C(:C:9)C9:C(F):C(F):C(:C(F):C:9F)C9:C(F):C(F):C(:C(F):C:9F)C:4:C:7C4:C(F):C(F):C(:C(F):C:4F)C4:C(F):C(F):C(C7:C:C(:C:C(:C:7)C7:C(F):C(F):C(:C(F):C:7F)C7:C(F):C(F):C3:C(F):C:7F)C3:C(F):C(F):C(:C(F):C:3F)C3:C(F):C(F):C(C(:O):O):C(F):C:3F):C(F):C:4F)C3:C(F):C(F):C(:C(F):C:3F)C3:C(F):C(F):C(C(:O):O):C(F):C:3F):C(F):C:8F)C3:C(F):C(F):C(:C(F):C:3F)C3:C(F):C(F):C(C(:O):O):C(F):C:3F):C(F):C:2F)C2:C(F):C(F):C(:C(F):C:2F)C2:C(F):C(F):C(C(:O):O):C(F):C:2F):C(F):C:6F)C2:C(F):C(F):C(:C(F):C:2F)C2:C(F):C(F):C(C(:O):O):C(F):C:2F):C(F):C:5F):C(F):C:1F,1
SR_acs_v1-6c_Al_1_Ch_1B_2SH_Ch_2x2x2,0.26542,0.67822,0.794833,2495.37,1983.4,8.58667,6.51674,30009.08854,,,,928,,240,240,192,Al3C24H12O13S6,0.054545455,6,6c_Al_1_Ch,18,O:C(:O)C1:C:C(S):C(:C:C:1S)C(:O):O,1
SR_ahr_v1-6c_CdZn_1_Ch_v2-6c_B_Ch_v3-3c_pyrrole_Ch_ntn_edge_2B_2F_Ch_1x1x1,0.23559,0.53954,1.19866,0,0,5.14298,2.72909,15218.04504,,,,753,,48,48,36,C144Cd3F36H48N6O13Zn1,0.016194332,6,6c_CdZn_1_Ch,246,O:C(:O)N1:C2:C:C:C:1C1:C:C(F):C(:C:C:1F)C1:C:C(F):C(:C:C:1F)C1:C:C:C(C3:C:C(F):C(:C:C:3F)C3:C:C(F):C(:C:C:3F)C3:C4C5:C:C(F):C(:C:C:5F)C5:C:C(F):C(:C:C:5F)C5:C:C:C(C6:C:C(F):C(:C:C:6F)C6:C:C(F):C(:C:C:6F)C6:C:C:C(C7:C:C(F):C(:C:C:7F)C7:C:C(F):C(:C:C:7F)C7:C(C8:C:C(F):C(:C:C:8F)C8:C:C(F):C2:C:C:8F):C:4C2:C:C(F):C(:C:C:2F)C2:C:C(F):C(:C:C:2F)C2:C:C:C(C4:C:C(F):C(:C:C:4F)C4:C:C(F):C(:C:C:4F)C4:C:C:C(C8:C:C(F):C(:C:C:8F)C8:C:C(F):C(:C:C:8F)C:3:7):N:4C(:O):O):N:2C(:O):O):N:6C(:O):O):N:5C(:O):O):N:1C(:O):O,1
SR_afy_v1-4c_Cd_1_Ch_v2-4c_1anC_Ch_1TrU_Ch_1x1x2,0.0671,0.87178,0.392649,4077.37,1600.98,23.02072,21.51037,42678.83742,,,,448,,192,192,192,C29Cd3O24,0.056603774,4,4c_Cd_1_Ch,"8,34",O:C(:O)C#CC(:O):O___O:C(:O)C#CC(C#CC(:O):O)(C#CC(:O):O)C#CC(C#CC(:O):O)(C#CC(:O):O)C#CC(:O):O,1
SR_ahr_v1-6c_Zr_1_Ch_v2-6c_Zr_1_Ch_v3-3c_pyrrole_Ch_ntn_edge_2B_4CN_Ch_1x1x1,0.10531,0.617,0.944798,1421.66,1343.18,9.64192,5.13378,35651.7599,,,,1278,,288,288,72,C108H28N39O32Zr6,0.028985507,6,6c_Zr_1_Ch,"110,110,110",N#CC1:C(C#N):C(:C(C#N):C(C#N):C:1C(:O):O)C1:C(C#N):C(C#N):C(:C(C#N):C:1C#N)C1:C:C:C(C(:O):O):N:1C1:C(C#N):C(C#N):C(:C(C#N):C:1C#N)C1:C(C#N):C(C#N):C(:C(C#N):C:1C#N)N1:C(:C:C:C:1C1:C(C#N):C(C#N):C(:C(C#N):C:1C#N)C1:C(C#N):C(C#N):C(C(:O):O):C(C#N):C:1C#N)C(:O):O___N#CC1:C(C#N):C(:C(C#N):C(C#N):C:1C(:O):O)C1:C(C#N):C(C#N):C(:C(C#N):C:1C#N)C1:C:C:C(C2:C(C#N):C(C#N):C(:C(C#N):C:2C#N)C2:C(C#N):C(C#N):C(:C(C#N):C:2C#N)C2:C:C:C(C3:C(C#N):C(C#N):C(:C(C#N):C:3C#N)C3:C(C#N):C(C#N):C(C(:O):O):C(C#N):C:3C#N):N:2C(:O):O):N:1C(:O):O___N#CC1:C(C#N):C(:C(C#N):C(C#N):C:1C(:O):O)C1:C(C#N):C(C#N):C(:C(C#N):C:1C#N)C1:C:C:C(C2:C(C#N):C(C#N):C(:C(C#N):C:2C#N)C2:C(C#N):C(C#N):C(:C(C#N):C:2C#N)N2:C(:C:C:C:2C2:C(C#N):C(C#N):C(:C(C#N):C:2C#N)C2:C(C#N):C(C#N):C(C(:O):O):C(C#N):C:2C#N)C(:O):O):N:1C(:O):O,1
SR_afx_v1-4c_In_1_Ch_v2-4c_In_1_Ch_1TrU_Ch_1B_4H_Ch_1x1x1,0.06586,0.89022,0.324892,4504.62,1463.52,24.24274,15.54465,112041.562,,,,1104,,384,384,384,C11H3In1O8,0.045454545,4,4c_In_1_Ch,"8,16",O:C(:O)C#CC(:O):O___O:C(:O)C1:C:C:C(:C:C:1)C(:O):O,1
SR_act_v1-6c_Ni_1_Ch_v2-3c_triazine_Ch_2B_fused_Ch_ntn_edge_1x1x1,0.20752,0.57924,1.21816,911.57,1110.44,7.5323,4.66472,20863.59829,,,,1088,,288,288,192,C30H11N9Ni4O14,0.0625,6,6c_Ni_1_Ch,40,O:C(:O)C1:N:C(:N:C(:N:1)C1:C:C:C2:C:C(:C:C:C:2:C:1)C1:N:C(:N:C(:N:1)C(:O):O)C(:O):O)C(:O):O,1
SR_acs_v1-6c_Cr_1_Ch_2B_2NO2_Ch_2x2x2,0.23362,0.7837,0.557821,3620.81,2019.76,13.81612,12.12756,79086.04355,,,,1696,,240,240,192,C42Cr3H12N12O37,0.029126214,6,6c_Cr_1_Ch,34,O:C(:O)C1:C:C(:C(:C:C:1N(:O):O)C1:C:C(:C(:C:C:1N(:O):O)C(:O):O)N(:O):O)N(:O):O,1
SR_ahr_v1-6c_CdZn_1_Ch_v2-6c_B_Ch_v3-3c_B_Ch_1TrU_Ch_ntn_edge_2x2x1,0.38307,0.63236,1.08543,1444.46,1567.86,8.53801,5.44948,27080.4579,,,,1068,,192,192,144,C54Cd3H18O13Zn1,0.047058824,6,6c_CdZn_1_Ch,336,O:C(:O)C1:C:C2C#CC3:C:C(:C:C(:C:3)C3:C4C5:C:C(C#CC6:C:C(:C:C(:C:6)C6:C7C8:C:C(C#CC9:C:C(:C:C(:C:9)C9:C(C(:C:2):C:1):C1C2:C:C(C#CC%10:C:C(:C:C(:C:%10)C%10:C%11C%12:C:C(C#CC%13:C:C(:C:C(:C:%13)C:6:C6C%13:C:C(C#CC%14:C:C(:C:C(:C:%14)C:1:C1C%14:C:C(C#CC%15:C:C(:C:C(:C:%15)C%15:C%16C%17:C:C(C#CC%18:C:C(:C:C(:C:%18)C:6:C:7C6:C:C(C#CC7:C:C(:C:C(:C:7)C(:C:%10C7:C:C(C#CC%10:C:C(:C:C(:C:%10)C:3:%16)C(:O):O):C:C(:C:7)C(:O):O):C(C3:C:C(C#CC7:C:C(:C:C(:C:7)C:9:1)C(:O):O):C:C(:C:3)C(:O):O):C:%11C1:C:C(C#CC3:C:C(:C:C(:C:3)C:4:%15)C(:O):O):C:C(:C:1)C(:O):O)C(:O):O):C:C(:C:6)C(:O):O)C(:O):O):C:C(:C:%17)C(:O):O)C(:O):O):C:C(:C:%14)C(:O):O)C(:O):O):C:C(:C:%13)C(:O):O)C(:O):O):C:C(:C:%12)C(:O):O)C(:O):O):C:C(:C:2)C(:O):O)C(:O):O):C:C(:C:8)C(:O):O)C(:O):O):C:C(:C:5)C(:O):O)C(:O):O,1
SR_act_v1-6c_Zn_1_Ch_v2-3c_B_Ch_ntn_edge_1B_4CN_Ch_1x1x1,0.17001,0.55928,1.2215,0,0,7.24067,3.29262,22427.81992,,,,1136,,256,256,192,C39H9N6O13Zn4,0.059701493,6,6c_Zn_1_Ch,44,N#CC1:C(C#N):C(C2:C:C(:C:C(:C:2)C(:O):O)C(:O):O):C(C#N):C(C#N):C:1C1:C:C(:C:C(:C:1)C(:O):O)C(:O):O,1
SR_act_v1-6c_Zn_1_Ch_v2-3c_triazine_Ch_2B_1DoU_Ch_1x1x1,0.08219,0.94086,0.129568,7295.19,945.225,27.4682,21.24898,433186.6295,,,,3536,,256,256,192,C120H75N9O13Zn4,0.01843318,6,6c_Zn_1_Ch,144,O:C(:O)C1:C:C:C(C=CC2:C:C:C(:C:C:2)C2:N:C(:N:C(:N:2)C2:C:C:C(C=CC3:C:C:C(:C:C:3)C3:N:C(:N:C(:N:3)C3:C:C:C(C=CC4:C:C:C(:C:C:4)C(:O):O):C:C:3)C3:C:C:C(C=CC4:C:C:C(:C:C:4)C(:O):O):C:C:3):C:C:2)C2:C:C:C(C=CC3:C:C:C(:C:C:3)C(:O):O):C:C:2):C:C:1,1
SR_acs_v1-6c_Fe_1_Ch_1B_2CH3_Ch_2x2x2,0.2651,0.71756,0.679337,2991.66,2032.35,10.07044,8.04533,34458.81398,,,,1120,,240,240,192,C30Fe3H24O13,0.044776119,6,6c_Fe_1_Ch,22,CC1:C:C(C(:O):O):C(C):C:C:1C(:O):O,1
SR_agw_v1-3c_B_Ch_v2-4c_ethene_Ch_v3-6c_Cr_1_Ch_ntn_edge_1B_2SH_Ch_2x2x1,0.22126,0.6381,0.83557,1562.72,1305.76,9.31057,4.89063,48748.01578,,,,1808,,120,120,96,C120Cr3H66O13S24,0.013452915,6,6c_Cr_1_Ch,,None,1
SR_ahr_v1-6c_Ni_1_Ch_v2-6c_B_Ch_v3-3c_triazine_Ch_1B_2F_Ch_ntn_edge_2x2x1,0.22508,0.77176,0.589152,3176.18,1871.25,12.43883,9.49949,94764.99696,,,,2256,,216,216,144,C51F12H13N9Ni2O7,0.02173913,6,6c_Ni_1_Ch,,None,1
SR_afi_v1-4c_Cd_1_Ch_1B_2OH_Ch_1x1x1,0.05654,0.89926,0.286985,4935.76,1416.49,33.59614,30.92816,81905.77228,,,,888,,192,192,192,C16Cd1H8O12,0.027777778,4,4c_Cd_1_Ch,18,O:C(:O)C1:C:C(O):C(:C:C:1O)C(:O):O,1
SR_ahr_v1-6c_Zr_1_Ch_v2-6c_Zr_1_Ch_v3-3c_triazine_Ch_1TrU_Ch_1DoU_Ch_1B_4H_Ch_2x2x1,0.13187,0.82124,0.50131,3705.83,1857.77,16.47377,12.51551,148525.8234,,,,2808,,1152,1152,288,C36H34N9O32Zr6,0.054054054,6,6c_Zr_1_Ch,46,O:C(:O)C#CC1:N:C(C=CC(:O):O):N:C(:N:1)C1:C:C:C(:C:C:1)C1:N:C(C#CC(:O):O):N:C(C=CC(:O):O):N:1,1
SR_acs_v1-6c_Al_1_Ch_1DoU_Ch_2x2x3,1.40556,0.70014,0.765726,2869.75,2197.44,9.10159,7.18062,25929.0899,,,,816,,360,360,288,Al3C12H6O13,0.096774194,6,6c_Al_1_Ch,10,O:C(:O)C=CC(:O):O,1
SR_act_v1-6c_CdZn_1_Ch_v2-3c_triazine_Ch_1TrU_Ch_1DoU_Ch_1x1x1,0.13284,0.84834,0.501334,4091.04,2050.98,13.55892,10.04934,58296.99919,,,,944,,256,256,192,C30Cd3H3N9O13Zn1,0.072727273,6,6c_CdZn_1_Ch,36,O:C(:O)C#CC1:N:C(C#CC(:O):O):N:C(C=CC2:N:C(C#CC(:O):O):N:C(C#CC(:O):O):N:2):N:1,1
SR_ahq_v1-6c_Ni_1_Ch_v2-6c_B_Ch_v3-4c_Ni_1_Ch_ntn_edge_1B_4CN_Ch_2x2x1,0.3087,0.53258,1.30148,0,0,5.80007,3.33023,45148.66436,,,,1896,,540,504,432,C42H1N12Ni5O19,0.067567568,"4,6","4c_Ni_1_Ch,6c_Ni_1_Ch","108,6",N#CC1:C(C#N):C(:C(C#N):C(C#N):C:1C(:O):O)C1:C(C2:C(C#N):C(C#N):C(C(:O):O):C(C#N):C:2C#N):C(C2:C(C#N):C(C#N):C(C(:O):O):C(C#N):C:2C#N):C(C2:C(C#N):C(C#N):C(C(:O):O):C(C#N):C:2C#N):C(C2:C(C#N):C(C#N):C(C(:O):O):C(C#N):C:2C#N):C:1C1:C(C#N):C(C#N):C(C(:O):O):C(C#N):C:1C#N___O:C(:O)C(:O):O,1
SR_ahq_v1-6c_Zr_1_Ch_v2-6c_B_Ch_v3-4c_ethene_Ch_ntn_edge_1B_2F_Ch_2x2x1,0.42326,0.43466,1.62158,0,0,5.6552,3.04937,28120.46176,,,,1656,,576,576,144,C27F6H17O16Zr3,0.045454545,6,6c_Zr_1_Ch,360,O:C(:O)C1=C(C(:O):O)C2:C:C(F):C(:C:C:2F)C2:C3C4:C:C(F):C(:C:C:4F)C(=C(C(:O):O)C4:C:C(F):C(:C:C:4F)C4:C5C6:C:C(F):C(:C:C:6F)C(=C(C(:O):O)C6:C:C(F):C(:C:C:6F)C6:C7C8:C:C(F):C(:C:C:8F)C(=C(C(:O):O)C8:C:C(F):C(:C:C:8F)C:3:C3C8:C:C(F):C(:C:C:8F)C(=C(C(:O):O)C8:C:C(F):C(:C:C:8F)C8:C9C%10:C:C(F):C(:C:C:%10F)C(=C(C(:O):O)C%10:C:C(F):C(:C:C:%10F)C:5:C5C%10:C:C(F):C(:C:C:%10F)C(=C(C(:O):O)C%10:C:C(F):C(:C:C:%10F)C:3:C:2C2:C:C(F):C(:C:C:2F)C(=C(C(:O):O)C2:C:C(F):C(:C:C:2F)C2:C:6C3:C:C(F):C(:C:C:3F)C(=C(C(:O):O)C3:C:C(F):C(:C:C:3F)C:9:C(C3:C:C(F):C1:C:C:3F):C1C3:C:C(F):C(:C:C:3F)C(=C(C(:O):O)C3:C:C(F):C(:C:C:3F)C:4:C:5C3:C:C(F):C(:C:C:3F)C(=C(C(:O):O)C3:C:C(F):C(:C:C:3F)C:2:C:7C2:C:C(F):C(:C:C:2F)C(=C(C(:O):O)C2:C:C(F):C(:C:C:2F)C:8:1)C(:O):O)C(:O):O)C(:O):O)C(:O):O)C(:O):O)C(:O):O)C(:O):O)C(:O):O)C(:O):O)C(:O):O)C(:O):O,1
SR_afi_v1-4c_In_1_Ch_1B_4Br_Ch_1x1x1,0.06243,0.84014,0.691746,2128.83,1472.61,30.45071,28.512,72173.39723,,,,792,,192,192,192,Br8C16In1O8,0.03125,4,4c_In_1_Ch,16,O:C(:O)C1:C(Br):C(Br):C(C(:O):O):C(Br):C:1Br,1
SR_abr_v1-4c_1anC_Ch_v2-4c_Cd_1_Ch_v3-4c_Cd_1_Ch_ntn_edge_1B_2TrU_Ch_2x2x1,0.0904,0.84454,0.506115,3301.7,1671.04,14.65587,10.81241,52258.35051,,,,856,,384,384,384,C45Cd6H8O48,0.059405941,4,4c_Cd_1_Ch,"20,6,13",O:C(:O)C#CC1:C:C:C(C#CC(:O):O):C:C:1___O:C(:O)C(:O):O___O:C(:O)C(C(:O):O)(C(:O):O)C(:O):O,1
SR_aht_v1-4c_1anC_Ch_v2-4c_Cd_1_Ch_2B_4CN_Ch_ntn_edge_1x1x1,0.16357,0.65134,0.786374,1693.39,1331.64,13.1963,10.56857,29108.44114,,,,1016,,64,64,64,C86Cd1N32O8,0.007936508,4,4c_Cd_1_Ch,"34,368",N#CC1:C(C#N):C(:C(C#N):C(C#N):C:1C(:O):O)C1:C(C#N):C(C#N):C(C(:O):O):C(C#N):C:1C#N___N#CC1:C(C#N):C2:C(C#N):C(C#N):C:1C1:C(C#N):C(C#N):C(:C(C#N):C:1C#N)C1(C(:O):O)C3:C(C#N):C(C#N):C(:C(C#N):C:3C#N)C3:C(C#N):C(C#N):C(:C(C#N):C:3C#N)C3(C(:O):O)C4:C(C#N):C(C#N):C(:C(C#N):C:4C#N)C4:C(C#N):C(C#N):C(:C(C#N):C:4C#N)C4(C(:O):O)C5:C(C#N):C(C#N):C(:C(C#N):C:5C#N)C5:C(C#N):C(C#N):C(:C(C#N):C:5C#N)C2(C(:O):O)C2:C(C#N):C(C#N):C(:C(C#N):C:2C#N)C2:C(C#N):C(C#N):C(:C(C#N):C:2C#N)C2(C(:O):O)C5:C(C#N):C(C#N):C(:C(C#N):C:5C#N)C5:C(C#N):C(C#N):C(:C(C#N):C:5C#N)C(C(:O):O)(C5:C(C#N):C(C#N):C(:C(C#N):C:5C#N)C5:C(C#N):C(C#N):C1:C(C#N):C:5C#N)C1:C(C#N):C(C#N):C(:C(C#N):C:1C#N)C1:C(C#N):C(C#N):C(:C(C#N):C:1C#N)C(C(:O):O)(C1:C(C#N):C(C#N):C(:C(C#N):C:1C#N)C1:C(C#N):C(C#N):C3:C(C#N):C:1C#N)C1:C(C#N):C(C#N):C(:C(C#N):C:1C#N)C1:C(C#N):C(C#N):C(:C(C#N):C:1C#N)C(C(:O):O)(C1:C(C#N):C(C#N):C(:C(C#N):C:1C#N)C1:C(C#N):C(C#N):C4:C(C#N):C:1C#N)C1:C(C#N):C(C#N):C(:C(C#N):C:1C#N)C1:C(C#N):C(C#N):C2:C(C#N):C:1C#N,1
SR_afy_v1-4c_In_1_Ch_v2-4c_1anC_Ch_ntn_edge_1B_2OH_Ch_2x2x1,0.10018,0.8191,0.561829,2495.63,1402.12,21.50681,17.59054,70294.5721,,,,1312,,384,384,384,C34H14In3O31,0.037974684,4,4c_In_1_Ch,"6,104",O:C(:O)C(:O):O___O:C(:O)C1:C:C(O):C(:C:C:1O)C(C1:C:C(O):C(:C:C:1O)C(:O):O)(C1:C:C(O):C(:C:C:1O)C(:O):O)C1:C:C(O):C(:C:C:1O)C(C1:C:C(O):C(:C:C:1O)C(:O):O)(C1:C:C(O):C(:C:C:1O)C(:O):O)C1:C:C(O):C(:C:C:1O)C(:O):O,1
SR_ahr_v1-6c_CdZn_1_Ch_v2-6c_B_Ch_v3-3c_pyrrole_Ch_1B_2F_Ch_ntn_edge_2x2x1,0.29542,0.473,1.52151,0,0,5.3245,2.21649,27185.863,,,,1572,,192,192,144,C72Cd3F12H24N6O13Zn1,0.031496063,6,6c_CdZn_1_Ch,,None,1
SR_act_v1-6c_Zn_1_Ch_v2-3c_B_Ch_1TrU_Ch_1DoU_Ch_1x1x1,0.15982,0.84162,0.429344,4858.6,2086.01,13.0968,9.50282,58792.53815,,,,1088,,256,256,192,C39H12O13Zn4,0.0625,6,6c_Zn_1_Ch,42,O:C(:O)C#CC1:C:C(C#CC(:O):O):C:C(C=CC2:C:C(C#CC(:O):O):C:C(C#CC(:O):O):C:2):C:1,1
SR_ahq_v1-6c_Zr_1_Ch_v2-6c_B_Ch_v3-4c_ethene_Ch_ntn_edge_1B_2CF3_Ch_2x2x1,0.45555,0.30838,2.03139,0,0,4.59221,1.6506,29223.02155,,,,2088,,576,576,144,C33F18H17O16Zr3,0.035714286,6,6c_Zr_1_Ch,,None,1
SR_acs_v1-6c_Cr_1_Ch_1B_2furan_Ch_2x2x2,0.38334,0.83956,0.422104,4580.11,1933.28,14.76429,12.95411,65550.54365,,,,1120,,240,240,192,C36Cr3H12O19,0.044776119,6,6c_Cr_1_Ch,22,O:C(:O)C1:C:C2:C:C3:O:C(:C:C:3:C:C:2:O:1)C(:O):O,1
SR_aca_v1-4c_B_Ch_v2-6c_bicyclooctane_Ch_v3-6c_CdZn_1_Ch_ntn_edge_2x2x2,0.20051,0.64442,1.51356,777.869,1177.35,11.42789,9.80513,48005.23836,,,,1648,,768,768,576,C44Cd9H8O39Zn3,0.131868132,6,6c_CdZn_1_Ch,"20,28",O:C(:O)C1:C:C(C(:O):O):C(:C:C:1C(:O):O)C(:O):O___O:C(:O)C1=C(C(:O):O)C2C(=C(C(:O):O)C1C(=C2C(:O):O)C(:O):O)C(:O):O,1
SR_acs_v1-6c_Fe_1_Ch_1B_2F_Ch_2x2x2,0.5348,0.74568,0.710006,3097.06,2198.93,10.09746,8.60378,33924.08815,,,,832,,240,240,192,C24F6Fe3H6O13,0.06122449,6,6c_Fe_1_Ch,16,O:C(:O)C1:C:C(F):C(:C:C:1F)C(:O):O,1
SR_act_v1-6c_Zr_1_Ch_v2-3c_triazine_Ch_2B_fused_Ch_1x1x1,0.12488,0.8802,0.300453,4770.19,1433.22,21.32822,15.43278,206452.9741,,,,3264,,768,768,192,C90H67N9O32Zr6,0.03030303,6,6c_Zr_1_Ch,104,O:C(:O)C1:C:C:C2:C:C(:C:C:C:2:C:1)C1:N:C(:N:C(:N:1)C1:C:C:C2:C:C(:C:C:C:2:C:1)C1:N:C(:N:C(:N:1)C1:C:C:C2:C:C(:C:C:C:2:C:1)C(:O):O)C1:C:C:C2:C:C(:C:C:C:2:C:1)C(:O):O)C1:C:C:C2:C:C(:C:C:C:2:C:1)C(:O):O,1
SR_acs_v1-6c_Al_1_Ch_2B_4CN_Ch_2x2x2,0.26269,0.75354,0.551235,3027.17,1668.68,14.95506,13.7241,78628.73632,,,,1696,,240,240,192,Al3C66N24O13,0.029126214,6,6c_Al_1_Ch,34,N#CC1:C(C#N):C(:C(C#N):C(C#N):C:1C(:O):O)C1:C(C#N):C(C#N):C(C(:O):O):C(C#N):C:1C#N,1
SR_agw_v1-3c_B_Ch_v2-4c_ethene_Ch_v3-6c_Cr_1_Ch_1B_2CF3_Ch_2x2x1,0.14728,0.7169,0.7372,2381.97,1755.99,15.71459,8.48609,99456.85378,,,,2960,,120,120,96,C192Cr3F108H54O13,0.008174387,6,6c_Cr_1_Ch,,None,1
SR_aca_v1-4c_porphyrin_Ch_v2-6c_bicyclooctane_Ch_v3-6c_Zn_1_Ch_1TrU_Ch_2TrU_Ch_1x1x1,0.15569,0.85418,0.398363,4328.16,1724.18,22.58768,20.84504,31072.96875,,,,458,,96,96,72,C134H32N12O39Zn12,0.055299539,6,6c_Zn_1_Ch,"52,54",O:C(:O)C#CC#CC1=C(C#CC#CC(:O):O)C2C(C#CC#CC(:O):O)=C(C#CC#CC(:O):O)C1C(C#CC#CC(:O):O)=C2C#CC#CC(:O):O___O:C(:O)C#CC1:C2:C:C:C(:N:2):C(C#CC(:O):O):C2:C:C:C(:[NH]:2):C(C#CC(:O):O):C2:C:C:C(:N:2):C(C#CC(:O):O):C2:C:C:C:1:[NH]:2,1
SR_ahr_v1-6c_CdZn_1_Ch_v2-6c_B_Ch_v3-3c_triazine_Ch_2B_1TrU_Ch_ntn_edge_1x1x2,0.36287,0.75526,0.568223,4272.79,2427.9,9.51511,6.22574,56853.35839,,,,1578,,96,96,72,C156Cd3H72N18O13Zn1,0.015444015,6,6c_CdZn_1_Ch,258,O:C(:O)C1:N:C2:N:C(:N:1)C1:C:C:C(C#CC3:C:C:C(:C:C:3)C3:C4C5:C:C:C(C#CC6:C:C:C(:C:C:6)C6:N:C(:N:C(:N:6)C6:C:C:C(C#CC7:C:C:C(:C:C:7)C7:N:C(:N:C(:N:7)C7:C:C:C(C#CC8:C:C:C(:C:C:8)C8:C:3C3:C:C:C(C#CC9:C:C:C(:C:C:9)C9:N:C(:N:C(:N:9)C9:C:C:C(C#CC%10:C:C:C(:C:C:%10)C%10:N:C(:N:C(:N:%10)C%10:C:C:C(C#CC%11:C:C:C(:C:C:%11)C:4:C:8C4:C:C:C(C#CC8:C:C:C(:C:C:8)C8:N:C(:N:C(:N:8)C8:C:C:C(C#CC%11:C:C:C2:C:C:%11):C:C:8)C(:O):O):C:C:4):C:C:%10)C(:O):O):C:C:9)C(:O):O):C:C:3):C:C:7)C(:O):O):C:C:6)C(:O):O):C:C:5):C:C:1,1
SR_agw_v1-3c_B_Ch_v2-4c_ethene_Ch_v3-6c_Cr_1_Ch_1B_2SH_Ch_2x2x1,0.16413,0.76062,0.540598,3560.29,1924.68,15.6146,9.03605,99733.79925,,,,2384,,120,120,96,C156Cr3H90O13S36,0.010169492,6,6c_Cr_1_Ch,,None,1
SR_aht_v1-4c_bicyclooctane_Ch_v2-4c_In_1_Ch_ntn_edge_1B_2F_Ch_1x2x2,0.33347,0.44622,1.46591,0,0,4.36562,3.18207,25931.96031,,,,1824,,256,256,256,C32F4H12In1O8,0.017857143,4,4c_In_1_Ch,,None,1
SR_acs_v1-6c_Cr_1_Ch_1B_2OH_Ch_2x2x2,0.38906,0.7134,0.770415,2724.4,2098.92,9.96788,7.34036,30216.10058,,,,928,,240,240,192,C24Cr3H12O19,0.054545455,6,6c_Cr_1_Ch,18,O:C(:O)C1:C:C(O):C(:C:C:1O)C(:O):O,1
SR_ahq_v1-6c_Ni_1_Ch_v2-6c_B_Ch_v3-4c_Ni_1_Ch_1B_2F_Ch_2x2x1,0.18665,0.75344,0.720687,2376.45,1712.67,12.83098,9.89481,90514.99232,,,,2328,,540,504,432,C48F12H13Ni5O19,0.054347826,"4,6","4c_Ni_1_Ch,6c_Ni_1_Ch","16,84",O:C(:O)C1:C:C(F):C(:C:C:1F)C(:O):O___O:C(:O)C1:C:C(F):C(:C:C:1F)C1:C(C2:C:C(F):C(:C:C:2F)C(:O):O):C(C2:C:C(F):C(:C:C:2F)C(:O):O):C(C2:C:C(F):C(:C:C:2F)C(:O):O):C(C2:C:C(F):C(:C:C:2F)C(:O):O):C:1C1:C:C(F):C(:C:C:1F)C(:O):O,1
SR_act_v1-6c_CdZn_1_Ch_v2-3c_triazine_Ch_1TrU_Ch_1x1x1,0.14438,0.85348,0.489414,4140.7,2026.52,13.42909,10.10385,59552.61864,,,,896,,256,256,192,C30Cd3N9O13Zn1,0.076923077,6,6c_CdZn_1_Ch,34,O:C(:O)C#CC1:N:C(C#CC(:O):O):N:C(C#CC2:N:C(C#CC(:O):O):N:C(C#CC(:O):O):N:2):N:1,1
SR_ahr_v1-6c_CdZn_1_Ch_v2-6c_B_Ch_v3-3c_B_Ch_2B_2NO2_Ch_ntn_edge_1x1x1,0.15612,0.67016,0.835867,2007.89,1678.33,8.3104,4.77709,28958.95382,,,,1005,,48,48,36,C156Cd3H54N36O85Zn1,0.012084592,6,6c_CdZn_1_Ch,330,O:C(:O)C1:C:C2:C:C(:C:1)C1:C:C(:C(:C:C:1N(:O):O)C1:C:C(:C(:C:C:1N(:O):O)C1:C3C4:C:C(:C(:C:C:4N(:O):O)C4:C:C(:C(:C:C:4N(:O):O)C4:C:C(:C:C(:C:4)C4:C:C(:C(:C:C:4N(:O):O)C4:C:C(:C(:C:C:4N(:O):O)C4:C:C(:C:C(:C:4)C4:C:C(:C(:C:C:4N(:O):O)C4:C:C(:C(:C:C:4N(:O):O)C4:C:1C1:C:C(:C(:C:C:1N(:O):O)C1:C:C(:C(:C:C:1N(:O):O)C1:C:C(:C:C(:C:1)C1:C:C(:C(:C:C:1N(:O):O)C1:C:C(:C(:C:C:1N(:O):O)C1:C:C(:C:C(:C:1)C1:C:C(:C(:C:C:1N(:O):O)C1:C:C(:C(:C:C:1N(:O):O)C:3:C:4C1:C:C(:C(:C:C:1N(:O):O)C1:C:C(:C(:C:C:1N(:O):O)C1:C:C(:C:C(:C:1)C1:C:C(:C(:C:C:1N(:O):O)C1:C:C(:C2:C:C:1N(:O):O)N(:O):O)N(:O):O)C(:O):O)N(:O):O)N(:O):O)N(:O):O)N(:O):O)C(:O):O)N(:O):O)N(:O):O)C(:O):O)N(:O):O)N(:O):O)N(:O):O)N(:O):O)C(:O):O)N(:O):O)N(:O):O)C(:O):O)N(:O):O)N(:O):O)N(:O):O)N(:O):O,1
SR_ahr_v1-6c_CdZn_1_Ch_v2-6c_B_Ch_v3-3c_triazine_Ch_2B_2NO2_Ch_ntn_edge_1x1x1,0.17725,0.67618,0.836435,2153.13,1800.95,8.91435,5.1158,29061.9378,,,,951,,48,48,36,C138Cd3H36N54O85Zn1,0.012779553,6,6c_CdZn_1_Ch,312,O:C(:O)C1:N:C2:N:C(:N:1)C1:C:C(:C(:C:C:1N(:O):O)C1:C:C(:C(:C:C:1N(:O):O)C1:C3C4:C:C(:C(:C:C:4N(:O):O)C4:C:C(:C(:C:C:4N(:O):O)C4:N:C(:N:C(:N:4)C4:C:C(:C(:C:C:4N(:O):O)C4:C:C(:C(:C:C:4N(:O):O)C4:N:C(:N:C(:N:4)C4:C:C(:C(:C:C:4N(:O):O)C4:C:C(:C(:C:C:4N(:O):O)C4:C:1C1:C:C(:C(:C:C:1N(:O):O)C1:C:C(:C(:C:C:1N(:O):O)C1:N:C(:N:C(:N:1)C1:C:C(:C(:C:C:1N(:O):O)C1:C:C(:C(:C:C:1N(:O):O)C1:N:C(:N:C(:N:1)C1:C:C(:C(:C:C:1N(:O):O)C1:C:C(:C(:C:C:1N(:O):O)C:3:C:4C1:C:C(:C(:C:C:1N(:O):O)C1:C:C(:C(:C:C:1N(:O):O)C1:N:C(:N:C(:N:1)C1:C:C(:C(:C:C:1N(:O):O)C1:C:C(:C2:C:C:1N(:O):O)N(:O):O)N(:O):O)C(:O):O)N(:O):O)N(:O):O)N(:O):O)N(:O):O)C(:O):O)N(:O):O)N(:O):O)C(:O):O)N(:O):O)N(:O):O)N(:O):O)N(:O):O)C(:O):O)N(:O):O)N(:O):O)C(:O):O)N(:O):O)N(:O):O)N(:O):O)N(:O):O,1