name,k,VF,density,ASA_grav,ASA_vol,LPD,PLD,volume,,,,N_atoms,,N_metal_containing_bonds,N_metal_nonmetal_bonds,N_metal_linker_bonds,formula,metal_nonmetal_ratio,metal_node_connectivity,metal_node_name,N_atoms_per_linker,linker_SMILES,N_ccs
SR_cdle_v1-4c_Ni_1_Ch_v2-4c_bicyclooctane_Ch_v3-4c_porphyrin_Ch_1DoU_Ch_1TrU_Ch_2x2x1,0.24687,0.80792,0.427438,4235.33,1810.34,11.6784,10.08243,37497.81723,,,,944,,72,64,64,C34H16N4Ni1O4,0.017241379,4,4c_Ni_1_Ch,464,O:C(:O)C=CC1:C2:C:C:C(:N:2):C(C=CC(:O):O):C2:C:C:C(:[NH]:2):C2C#CC3=CC45C#CC6:C7:C:C:C(:N:7):C(C#CC7=CC89C#CC%10:C%11:C:C:C(:N:%11):C(C#CC(=C4)C3C(C#CC3:C4:C:C:C(:N:4):C(C#CC4=CC%11%12C#CC%13:C%14:C:C:C(:N:%14):C(C#CC%14=CC%15(C#CC%16:C%17:C:C:C(:N:%17):C(C#CC(=C%11)C4C(C#CC(:C4:C:C:C:2:N:4):C2:C:C:C:1:[NH]:2)=C%12):C1:C:C:C(:[NH]:1):C(C=CC(:O):O):C1:C:C:C(:N:1):C(C=CC(:O):O):C1:C:C:C:%16:[NH]:1)C=C1C#CC2:C4:C:C:C(:N:4):C(C#CC(=C8)C7C(C#CC4:C7:C:C:C(:N:7):C(C#CC(=C%15)C1%14):C1:C:C:C(:[NH]:1):C(C=CC(:O):O):C1:C:C:C(:N:1):C(C=CC(:O):O):C1:C:C:C:4:[NH]:1)=C9):C1:C:C:C(:[NH]:1):C(C=CC(:O):O):C1:C:C:C(:N:1):C(C=CC(:O):O):C1:C:C:C:2:[NH]:1):C1:C:C:C(:[NH]:1):C(C=CC(:O):O):C1:C:C:C(:N:1):C(C=CC(:O):O):C1:C:C:C:%13:[NH]:1):C1:C:C:C(:[NH]:1):C(C=CC(:O):O):C1:C:C:C(:N:1):C(C=CC(:O):O):C1:C:C:C:3:[NH]:1)=C5):C1:C:C:C(:[NH]:1):C(C=CC(:O):O):C1:C:C:C(:N:1):C(C=CC(:O):O):C1:C:C:C:%10:[NH]:1):C1:C:C:C(:[NH]:1):C(C=CC(:O):O):C1:C:C:C(:N:1):C(C=CC(:O):O):C1:C:C:C:6:[NH]:1,1
SR_brl_v1-4c_V_1_Ch_v2-4c_1anC_Ch_2B_4F_Ch_1x1x2,0.1306,0.83888,0.4477,3843.55,1720.76,17.74264,14.86973,53238.6137,,,,816,,54,48,48,C39F24O4V1,0.014925373,4,4c_V_1_Ch,402,O:C(:O)C1:C(F):C(F):C(:C(F):C:1F)C1:C(F):C(F):C(:C(F):C:1F)C1(C2:C(F):C(F):C(:C(F):C:2F)C2:C(F):C(F):C(C(:O):O):C(F):C:2F)C2:C(F):C(F):C(:C(F):C:2F)C2:C(F):C(F):C(:C(F):C:2F)C(C2:C(F):C(F):C(:C(F):C:2F)C2:C(F):C(F):C(C(:O):O):C(F):C:2F)(C2:C(F):C(F):C(:C(F):C:2F)C2:C(F):C(F):C(C(:O):O):C(F):C:2F)C2:C(F):C(F):C(:C(F):C:2F)C2:C(F):C(F):C(:C(F):C:2F)C(C2:C(F):C(F):C(:C(F):C:2F)C2:C(F):C(F):C(C(:O):O):C(F):C:2F)(C2:C(F):C(F):C(:C(F):C:2F)C2:C(F):C(F):C(C(:O):O):C(F):C:2F)C2:C(F):C(F):C(:C(F):C:2F)C2:C(F):C(F):C(:C(F):C:2F)C(C2:C(F):C(F):C(:C(F):C:2F)C2:C(F):C(F):C(C(:O):O):C(F):C:2F)(C2:C(F):C(F):C(:C(F):C:2F)C2:C(F):C(F):C(C(:O):O):C(F):C:2F)C2:C(F):C(F):C(:C(F):C:2F)C2:C(F):C(F):C(:C(F):C:2F)C(C2:C(F):C(F):C(:C(F):C:2F)C2:C(F):C(F):C(C(:O):O):C(F):C:2F)(C2:C(F):C(F):C(:C(F):C:2F)C2:C(F):C(F):C(C(:O):O):C(F):C:2F)C2:C(F):C(F):C(:C(F):C:2F)C2:C(F):C(F):C(:C(F):C:2F)C(C2:C(F):C(F):C(:C(F):C:2F)C2:C(F):C(F):C(C(:O):O):C(F):C:2F)(C2:C(F):C(F):C(:C(F):C:2F)C2:C(F):C(F):C(C(:O):O):C(F):C:2F)C2:C(F):C(F):C(:C(F):C:2F)C2:C(F):C(F):C1:C(F):C:2F,1
SR_crsd_v1-8c_Mn_1_Ch_v2-4c_bicyclooctane_Ch_1B_2CH3_Ch_ntn_edge_1x1x1,0.22868,0.67088,0.777092,2584.96,2008.75,7.52592,4.15313,22504.82514,,,,968,,160,160,128,C48Cl1H36Mn4N32,0.034188034,8,8c_Mn_1_Ch,"96,10",CC1:C:C(C2:N:N:N:N:2):C(C):C:C:1C1=CC2(C=C(C3:C:C(C):C(:C:C:3C)C3:N:N:N:N:3)C1C(=C2)C1:C:C(C):C(:C:C:1C)C1:N:N:N:N:1)C1:C:C(C):C(:C:C:1C)C1:N:N:N:N:1___N1:N:N:C(:N:1)C1:N:N:N:N:1,1
SR_ced_v1-3c_B_Ch_v2-12c_Mn_1_Ch_ntn_edge_1B_2Br_Ch_2x2x2,0.22965,0.59166,1.34762,1019.22,1373.51,8.38686,4.87377,48529.28512,,,,1768,,336,336,144,Br24C120H42Mn8O27,0.037558685,12,12c_Mn_1_Ch,70,OC(:O)C1:C:C(Br):C(:C:C:1Br)C1:C:C(:C:C(:C:1)C1:C:C(Br):C(:C:C:1Br)C(:O):O)C1:C:C(:C:C(:C:1)C1:C:C(Br):C(:C:C:1Br)C(:O):O)C1:C:C(Br):C(:C:C:1Br)C(O):O,1
SR_ceu_v1-4c_B_Ch_v2-6c_Ni_1_Ch_v3-4c_Ni_1_Ch_1B_4H_Ch_1TrU_Ch_2x2x1,0.21474,0.76672,0.607276,3504.83,2128.4,14.03903,6.77273,87228.3109,,,,2288,,504,480,384,C78H32Ni7O26,0.051470588,"4,6","4c_Ni_1_Ch,6c_Ni_1_Ch",44,O:C(:O)C#CC1:C:C(C2:C:C:C(:C:C:2)C(:O):O):C(:C:C:1C#CC(:O):O)C1:C:C:C(:C:C:1)C(:O):O,1
SR_ced_v1-3c_B_Ch_v2-12c_Mn_1_Ch_1B_2SH_Ch_2x2x2,0.19497,0.63266,0.886926,1817.2,1611.72,8.55462,4.16796,61741.53795,,,,2248,,336,336,144,C138H78Mn8O27S30,0.029304029,12,12c_Mn_1_Ch,90,OC(:O)C1:C:C(S):C(:C:C:1S)C1:C:C(:C:C(:C:1)C1:C:C(S):C(:C:C:1S)C1:C:C(:C:C(:C:1)C1:C:C(S):C(:C:C:1S)C(:O):O)C1:C:C(S):C(:C:C:1S)C(O):O)C1:C:C(S):C(:C:C:1S)C(:O):O,1
SR_cut_v1-8c_Co_1_Ch_v2-3c_B_Ch_ntn_edge_1B_2Br_Ch_2x2x2,0.13283,0.73146,0.896371,1939.1,1738.15,11.82831,10.0993,41408.86802,,,,1160,,160,160,128,Br16C80Co4H28O17,0.028368794,8,8c_Co_1_Ch,70,O:C(:O)C1:C:C(Br):C(:C:C:1Br)C1:C:C(:C:C(:C:1)C1:C:C(Br):C(:C:C:1Br)C(:O):O)C1:C:C(:C:C(:C:1)C1:C:C(Br):C(:C:C:1Br)C(:O):O)C1:C:C(Br):C(:C:C:1Br)C(:O):O,1
SR_crsd_v1-8c_Co_1_Ch_v2-4c_1anC_Ch_1B_4H_Ch_1DoU_Ch_2x1x1,0.33197,0.5232,1.26443,0,0,5.08879,2.99661,20431.33007,,,,1248,,320,320,256,C37Co4H20O17,0.054054054,8,8c_Co_1_Ch,"53,10",O:C(:O)C1:C:C:C(:C:C:1)C(C1:C:C:C(:C:C:1)C(:O):O)(C1:C:C:C(:C:C:1)C(:O):O)C1:C:C:C(:C:C:1)C(:O):O___O:C(:O)C=CC(:O):O,1
SR_ceu_v1-4c_B_Ch_v2-6c_Zn_1_Ch_v3-4c_porphyrin_Ch_1B_2F_Ch_ntn_edge_2x2x1,0.16092,0.73302,0.681717,2935.24,2001,11.14142,8.84608,85460.1694,,,,2528,,256,256,192,C90F12H33N6O13Zn4,0.025974026,6,6c_Zn_1_Ch,306,O:C(:O)C1:C:C(F):C(:C:C:1F)C1:C:C2:C(:C:C:1C1:C:C(F):C(:C:C:1F)C(:O):O)C1:C3:C:C:C(:N:3):C3C4:C:C(C5:C:C(F):C(:C:C:5F)C(:O):O):C(:C:C:4C4:C5:C:C:C(:N:5):C5C6:C:C(C7:C:C(F):C(:C:C:7F)C(:O):O):C(:C:C:6C6:C7:C:C:C(:N:7):C2:C2:C:C:C(:[NH]:2):C2C7:C:C(C8:C:C(F):C(:C:C:8F)C(:O):O):C(:C:C:7C(:C7:C:C:C(:N:7):C(C7:C:C(C8:C:C(F):C(:C:C:8F)C(:O):O):C(:C:C:7C(:C7:C:C:C(:N:7):C(C7:C:C(C8:C:C(F):C(:C:C:8F)C(:O):O):C(:C:C:7C(:C7:C:C:C:2:N:7):C2:C:C:C:6:[NH]:2)C2:C:C(F):C(:C:C:2F)C(:O):O):C2:C:C:C:5:[NH]:2):C2:C:C:C:4:[NH]:2)C2:C:C(F):C(:C:C:2F)C(:O):O):C2:C:C:C:3:[NH]:2):C2:C:C:C:1:[NH]:2)C1:C:C(F):C(:C:C:1F)C(:O):O)C1:C:C(F):C(:C:C:1F)C(:O):O)C1:C:C(F):C(:C:C:1F)C(:O):O,1
SR_buh_v1-4c_bicyclooctane_Ch_v2-12c_Eu_1_Ch_v3-12c_Eu_1_Ch_1B_2CH3_Ch_1x1x1,0.16315,0.61292,1.01059,1118.94,1130.79,10.40218,3.73521,41068.79935,,,,2256,,384,384,192,C66Eu3H56O16,0.02173913,12,12c_Eu_1_Ch,88,CC1:C:C(C(:O):O):C(C):C:C:1C1=CC2(C=C(C3:C:C(C):C(:C:C:3C)C(:O):O)C1C(=C2)C1:C:C(C):C(:C:C:1C)C(:O):O)C1:C:C(C):C(:C:C:1C)C(:O):O,1
SR_btv_v1-5c_bicyclooctane_Ch_v2-6c_Zn_1_Ch_ntn_edge_1B_2CH3_Ch_2x2x1,0.21241,0.75272,0.565193,3530.35,1995.33,14.18895,11.67974,40032.2385,,,,1448,,128,128,96,C90H68N6O13Zn4,0.02259887,6,6c_Zn_1_Ch,,None,1
SR_buh_v1-4c_bicyclooctane_Ch_v2-12c_Eu_1_Ch_v3-12c_Eu_1_Ch_1B_2NH2_Ch_1x1x1,0.17228,0.63354,1.0175,1494.55,1520.7,9.65585,4.18976,41092.66935,,,,2064,,384,384,192,C54Eu3H44N12O16,0.023809524,12,12c_Eu_1_Ch,80,NC1:C:C(C(:O):O):C(N):C:C:1C1=CC2(C=C(C3:C:C(N):C(:C:C:3N)C(:O):O)C1C(=C2)C1:C:C(N):C(:C:C:1N)C(:O):O)C1:C:C(N):C(:C:C:1N)C(:O):O,1
SR_buh_v1-4c_1anC_Ch_v2-12c_Zr_1_Ch_v3-12c_Zr_1_Ch_3B_fused_8H_Ch_1x1x1,0.18227,0.75072,0.577588,3638.88,2101.77,14.75738,7.3363,77245.74455,,,,2568,,384,384,192,C183H100O32Zr6,0.019047619,12,12c_Zr_1_Ch,101,O:C(:O)C1:C:C:C2:C(:C:C:C3:C:C(:C:C:C:3:2)C(C2:C:C:C3:C(:C:C:C4:C:C(:C:C:C:4:3)C(:O):O):C:2)(C2:C:C:C3:C(:C:C:C4:C:C(:C:C:C:4:3)C(:O):O):C:2)C2:C:C:C3:C(:C:C:C4:C:C(:C:C:C:4:3)C(:O):O):C:2):C:1,1
SR_cdl_v1-4c_V_1_Ch_1B_2NO2_Ch_2x2x1,0.60128,0.71344,0.791227,2814.59,2226.98,9.20727,5.70747,81948.65536,,,,2688,,576,512,512,C8H2N2O8V1,0.05,4,4c_V_1_Ch,20,O:C(:O)C1:C:C(:C(:C:C:1N(:O):O)C(:O):O)N(:O):O,1
SR_cdm_v1-4c_Cu_1_Ch_v2-4c_Cu_1_Ch_1TrU_Ch_1B_4H_Ch_1DoU_Ch_2x2x1,0.99364,0.73232,0.797192,2952.4,2353.63,10.8049,7.42684,80772.33448,,,,2560,,864,768,768,C18Cu3H7O12,0.081081081,4,4c_Cu_1_Ch,"8,16,10",O:C(:O)C#CC(:O):O___O:C(:O)C1:C:C:C(:C:C:1)C(:O):O___O:C(:O)C=CC(:O):O,1
SR_crsd_v1-8c_Zr_1_Ch_v2-4c_1anC_Ch_1B_2NH2_Ch_1x1x1,0.2672,0.43176,1.57477,0,0,5.49906,2.42494,15369.75723,,,,1176,,384,384,128,C45H52N12O32Zr6,0.042553191,8,8c_Zr_1_Ch,"69,20",NC1:C:C(:C(N):C:C:1C(:O):O)C(C1:C:C(N):C(:C:C:1N)C(:O):O)(C1:C:C(N):C(:C:C:1N)C(:O):O)C1:C:C(N):C(:C:C:1N)C(:O):O___NC1:C:C(C(:O):O):C(N):C:C:1C(:O):O,1
SR_cew_v1-4c_porphyrin_Ch_v2-8c_Mn_1_Ch_v3-4c_porphyrin_Ch_ntn_edge_1x1x2,0.40244,0.71716,0.658114,2353.49,1548.86,20.9098,15.30276,46101.49463,,,,1494,,120,120,96,C128Cl1H60Mn4N56,0.016326531,8,8c_Mn_1_Ch,,None,1
SR_cut_v1-8c_Mn_1_Ch_v2-3c_pyrrole_Ch_1B_4F_Ch_2x2x2,0.23712,0.79516,0.555164,3281.13,1821.57,16.24892,15.37093,66325.13871,,,,1384,,160,160,128,C84Cl1F40H8Mn4N36,0.023668639,8,8c_Mn_1_Ch,84,FC1:C(F):C(:C(F):C(F):C:1C1:N:N:N:N:1)C1:C:C:C(C2:C(F):C(F):C(:C(F):C:2F)C2:C:C:C(C3:C(F):C(F):C(C4:N:N:N:N:4):C(F):C:3F):N:2C2:C(F):C(F):C(C3:N:N:N:N:3):C(F):C:2F):N:1C1:C(F):C(F):C(C2:N:N:N:N:2):C(F):C:1F,1
SR_ceu_v1-4c_B_Ch_v2-6c_Zn_1_Ch_v3-4c_porphyrin_Ch_1B_2DoU_Ch_1x1x1,0.1092,0.90568,0.197533,6633.71,1310.37,25.03776,16.95794,107539.8188,,,,1256,,64,64,48,C174H117N6O13Zn4,0.012903226,6,6c_Zn_1_Ch,,None,1
SR_cet_v1-3c_B_Ch_v2-6c_Zn_1_Ch_v3-6c_bicyclooctane_Ch_1B_2OH_Ch_ntn_edge_2x2x1,0.2345,0.6667,0.775538,2536.49,1967.14,8.04613,4.79043,49001.39281,,,,1928,,128,128,96,C130H70O37Zn4,0.016877637,6,6c_Zn_1_Ch,,None,1
SR_cdl_v1-4c_Ni_1_Ch_2TrU_Ch_2x2x1,2.23791,0.86654,0.396337,5313.05,2105.76,13.30671,8.45815,104443.7558,,,,1408,,576,512,512,C6Ni1O4,0.1,4,4c_Ni_1_Ch,10,O:C(:O)C#CC#CC(:O):O,1
SR_buh_v1-4c_bicyclooctane_Ch_v2-12c_Zr_1_Ch_v3-12c_Zr_1_Ch_1DoU_Ch_1TrU_Ch_1x1x1,0.28332,0.65768,0.952253,1864.53,1775.51,9.94244,4.67054,25143.32922,,,,960,,384,384,192,C30H11O16Zr3,0.052631579,12,12c_Zr_1_Ch,34,O:C(:O)C#CC1=CC2(C#CC(:O):O)C=C(C#CC(:O):O)C1C(C=CC(:O):O)=C2,1
SR_crs_v1-6c_CdZn_1_Ch_1B_2indole_Ch_1x1x1,0.07397,0.90464,0.304261,4290.44,1305.41,27.14217,20.00604,100000.2593,,,,1232,,256,256,192,C36Cd3H18N6O13Zn1,0.054794521,6,6c_CdZn_1_Ch,24,O:C(:O)C1:C:C2:C:C3:[NH]:C(:C:C:3:C:C:2:[NH]:1)C(:O):O,1
SR_cai_v1-5c_bicyclooctane_Ch_v2-6c_CdZn_1_Ch_ntn_edge_1B_2F_Ch_2x2x2,0.30199,0.67702,0.994173,1960.29,1948.86,7.85943,5.66841,77581.58192,,,,3168,,512,512,384,C52Cd3F6H18N6O13Zn1,0.042105263,6,6c_CdZn_1_Ch,"6,352",O:C(:O)C(:O):O___O:C(:O)N1:C:C2:C(:C:1)C13C4:C:C(F):C(:C:C:4F)C45C6:C:N(:C:C:6C6(C7:C:C(F):C(:C:C:7F)C78C9:C:N(:C:C:9C9(C%10:C:C(F):C(:C:C:%10F)C%10%11C%12:C:N(:C:C:%12C%12(C%13:C:C(F):C(:C:C:%13F)C2(C2:C:N(:C:C:21)C(:O):O)C1:C:N(:C:C:13)C1:C:C(F):C(:C:C:1F)N1:C:C2:C(:C:1)C13C%13:C:C(F):C(:C:C:%13F)C%13%14C%15:C:N(:C:C:%15C(C%15:C:C(F):C(:C:C:%15F)C%15%16C%17:C:N(:C:C:%17C(C%17:C:C(F):C(:C:C:%17F)C%17%18C%19:C:N(:C:C:%19C(C%19:C:C(F):C(:C:C:%19F)C2(C2:C:N(:C:C:21)C(:O):O)C1:C:N(:C:C:13)C(:O):O)(C1:C:N(:C:C:1%17)C(:O):O)C1:C:N(:C:C:1%18)C1:C:C(F):C(:C:C:1F)N1:C:C%12:C%10:C:1)C(:O):O)(C1:C:N(:C:C:1%15)C(:O):O)C1:C:N(:C:C:1%16)C1:C:C(F):C(:C:C:1F)N1:C:C9:C7:C:1)C(:O):O)(C1:C:N(:C:C:1%13)C(:O):O)C1:C:N(:C:C:1%14)C1:C:C(F):C(:C:C:1F)N1:C:C4:C6:C:1)C(:O):O)C1:C:N(:C:C:1%11)C(:O):O)C(:O):O)C1:C:N(:C:C:18)C(:O):O)C(:O):O)C1:C:N(:C:C:15)C(:O):O)C(:O):O,1
SR_cgc_v1-3c_B_Ch_v2-6c_Ni_1_Ch_v3-6c_Ni_1_Ch_ntn_edge_1B_2CF3_Ch_1x1x1,0.11952,0.7027,1.04579,1907.01,1994.33,11.3557,6.90364,26657.58343,,,,952,,432,432,288,C40F12H13Ni12O42,0.112149533,6,6c_Ni_1_Ch,"6,50",O:C(:O)C(:O):O___O:C(:O)C1:C:C(:C:C(:C:1)C1:C:C(:C(:C:C:1C(F)(F)F)C(:O):O)C(F)(F)F)C1:C:C(:C(:C:C:1C(F)(F)F)C(:O):O)C(F)(F)F,1
SR_cee_v1-3c_Cu_imadazoline_Ch_v2-6c_B_Ch_v3-4c_Cu_1_Ch_1B_2indole_Ch_ntn_edge_1x1x1,0.21701,0.89642,0.297739,5539.78,1649.41,20.81147,13.27317,33279.42364,,,,408,,63,60,60,C16Cu2H9N5O2,0.0625,"3,4","3c_Cu_imadazoline_Ch,4c_Cu_1_Ch","48,28",C1:N:N:C:C:1C1:C(C2:C:N:N:C:2):C(C2:C:N:N:C:2):C(C2:C:N:N:C:2):C(C2:C:N:N:C:2):C:1C1:C:N:N:C:1___O:C(:O)C1:C:C2:C:C3:[NH]:C(:C:C:3:C:C:2:[NH]:1)C1:C:N:N:C:1,1
SR_crsd_v1-8c_Co_2_Ch_v2-4c_1anC_Ch_ntn_edge_1B_2NO2_Ch_1x1x1,0.25089,0.56552,1.14788,105.002,120.53,5.91802,3.56096,17175.27391,,,,880,,160,160,128,C41Cl1Co4H16N32O16,0.037735849,8,8c_Co_2_Ch,"12,81",C1:N:N:N:C1C1C:N:N:N:1___O:N(:O)C1:C:C(:C(:C:C:1C1C:N:N:N:1)N(:O):O)C(C1:C:C(:C(:C:C:1N(:O):O)C1C:N:N:N:1)N(:O):O)(C1:C:C(:C(:C:C:1N(:O):O)C1C:N:N:N:1)N(:O):O)C1:C:C(:C(:C:C:1N(:O):O)C1C:N:N:N:1)N(:O):O,1
SR_ceu_v1-4c_B_Ch_v2-6c_Ni_1_Ch_v3-4c_Ni_1_Ch_2B_2NH2_Ch_ntn_edge_1x1x1,0.1463,0.77426,0.545124,3679.11,2005.57,13.66942,8.9989,33586.46038,,,,956,,126,120,96,C102H80N24Ni7O26,0.030172414,"4,6","4c_Ni_1_Ch,6c_Ni_1_Ch",76,NC1:C:C(:C(N):C:C:1C(:O):O)C1:C:C(N):C(:C:C:1N)C1:C:C(C(:O):O):C(:C:C:1C1:C:C(N):C(:C:C:1N)C1:C:C(N):C(:C:C:1N)C(:O):O)C(:O):O,1
SR_ced_v1-3c_B_Ch_v2-12c_Mn_1_Ch_ntn_edge_2B_2F_Ch_2x2x2,0.16046,0.78216,0.540173,3669.9,1982.38,14.68777,10.12899,118389.4205,,,,2728,,336,336,144,C192F48H66Mn8O27,0.024024024,12,12c_Mn_1_Ch,110,OC(:O)C1:C:C(F):C(:C:C:1F)C1:C:C(F):C(:C:C:1F)C1:C:C(:C:C(:C:1)C1:C:C(F):C(:C:C:1F)C1:C:C(F):C(:C:C:1F)C(:O):O)C1:C:C(:C:C(:C:1)C1:C:C(F):C(:C:C:1F)C1:C:C(F):C(:C:C:1F)C(:O):O)C1:C:C(F):C(:C:C:1F)C1:C:C(F):C(:C:C:1F)C(O):O,1
SR_dea_v1-4c_Cd_1_Ch_v2-3c_B_Ch_v3-3c_B_Ch_ntn_edge_1B_4F_Ch_1x2x2,0.1288,0.70494,0.809548,2287.29,1851.67,9.43668,7.783,28974.53305,,,,976,,128,128,128,C34Cd1F12H6O8,0.016666667,4,4c_Cd_1_Ch,60,O:C(:O)C1:C:C(:C:C(:C:1)C1:C(F):C(F):C(C2:C:C(:C:C(:C:2)C2:C(F):C(F):C(C(:O):O):C(F):C:2F)C2:C(F):C(F):C(C(:O):O):C(F):C:2F):C(F):C:1F)C(:O):O,1
SR_cut_v1-8c_Co_2_Ch_v2-3c_triazine_Ch_1DoU_Ch_ntn_edge_2x2x3,1.0263,0.7799,0.590206,2781.41,1641.61,14.71925,13.58085,39616.73651,,,,1020,,240,240,192,C32Cl1Co4H12N36,0.049382716,8,8c_Co_2_Ch,40,C(=CC1:N:C(:N:C(:N:1)C1C:N:N:N:1)C1C:N:N:N:1)C1:N:C(:N:C(:N:1)C1C:N:N:N:1)C1C:N:N:N:1,1
SR_cdj_v1-3c_B_Ch_v2-6c_CdZn_1_Ch_1B_4F_Ch_1x1x1,0.09117,0.83058,0.512362,3796.51,1945.19,17.52665,9.29304,52331.77496,,,,1000,,128,128,96,C69Cd3F30H9O13Zn1,0.033057851,6,6c_CdZn_1_Ch,80,O:C(:O)C1:C(F):C(F):C(C2:C:C(:C:C(:C:2)C2:C(F):C(F):C(C3:C:C(:C:C(:C:3)C3:C(F):C(F):C(C(:O):O):C(F):C:3F)C3:C(F):C(F):C(C(:O):O):C(F):C:3F):C(F):C:2F)C2:C(F):C(F):C(C(:O):O):C(F):C:2F):C(F):C:1F,1
SR_ceu_v1-4c_B_Ch_v2-6c_Ni_1_Ch_v3-4c_Ni_1_Ch_1B_4CN_Ch_2x2x1,0.16648,0.67974,0.77634,2288.81,1776.89,10.77867,7.36388,132957.0201,,,,3824,,504,480,384,C150H8N48Ni7O26,0.030172414,"4,6","4c_Ni_1_Ch,6c_Ni_1_Ch",76,N#CC1:C(C#N):C(C2:C:C(:C(:C:C:2C2:C(C#N):C(C#N):C(C(:O):O):C(C#N):C:2C#N)C2:C(C#N):C(C#N):C(C(:O):O):C(C#N):C:2C#N)C2:C(C#N):C(C#N):C(C(:O):O):C(C#N):C:2C#N):C(C#N):C(C#N):C:1C(:O):O,1
SR_ced_v1-3c_triazine_Ch_v2-12c_Mn_1_Ch_2B_2CH3_Ch_2x2x1,0.14467,0.78488,0.43448,4574.92,1987.71,15.73168,9.15262,81463.30658,,,,2252,,168,168,72,C270H240Mn8N18O27,0.014414414,12,12c_Mn_1_Ch,184,CC1:C:C(:C(C):C:C:1C(O):O)C1:C:C(C):C(:C:C:1C)C1:N:C(:N:C(:N:1)C1:C:C(C):C(:C:C:1C)C1:C:C(C):C(:C:C:1C)C1:N:C(:N:C(:N:1)C1:C:C(C):C(:C:C:1C)C1:C:C(C):C(:C:C:1C)C(:O):O)C1:C:C(C):C(:C:C:1C)C1:C:C(C):C(:C:C:1C)C(O):O)C1:C:C(C):C(:C:C:1C)C1:C:C(C):C(:C:C:1C)C(:O):O,1
SR_buh_v1-4c_bicyclooctane_Ch_v2-12c_Eu_1_Ch_v3-12c_Eu_1_Ch_1B_2CF3_Ch_1x1x1,0.12134,0.53352,1.42202,0,0,9.31695,3.14971,41310.7899,,,,2256,,384,384,192,C66Eu3F36H20O16,0.02173913,12,12c_Eu_1_Ch,88,O:C(:O)C1:C:C(:C(:C:C:1C(F)(F)F)C1=CC2(C=C(C3:C:C(:C(:C:C:3C(F)(F)F)C(:O):O)C(F)(F)F)C1C(=C2)C1:C:C(:C(:C:C:1C(F)(F)F)C(:O):O)C(F)(F)F)C1:C:C(:C(:C:C:1C(F)(F)F)C(:O):O)C(F)(F)F)C(F)(F)F,1
SR_cut_v1-8c_Co_2_Ch_v2-3c_pyrrole_Ch_2B_1DoU_Ch_1x1x2,0.13907,0.93678,0.130202,6810.27,886.71,35.80359,33.92456,75778.29459,,,,642,,40,40,32,C172Cl1Co4H116N28,0.012618297,8,8c_Co_2_Ch,158,C(=CC1:C:C:C(:C:C:1)C1:C:C:C(C2:C:C:C(C=CC3:C:C:C(:C:C:3)C3:C:C:C(C4:C:C:C(C=CC5:C:C:C(:C:C:5)C5C:N:N:N:5):C:C:4):N:3C3:C:C:C(C=CC4:C:C:C(:C:C:4)C4C:N:N:N:4):C:C:3):C:C:2):N:1C1:C:C:C(C=CC2:C:C:C(:C:C:2)C2C:N:N:N:2):C:C:1)C1:C:C:C(:C:C:1)C1C:N:N:N:1,1
SR_buh_v1-4c_1anC_Ch_v2-12c_Zr_1_Ch_v3-12c_Zr_1_Ch_1B_2furan_Ch_1x1x1,0.19687,0.75832,0.628263,3509,2204.57,13.57739,6.44518,65916.79094,,,,1992,,384,384,192,C135H52O56Zr6,0.024691358,12,12c_Zr_1_Ch,77,O:C(:O)C1:C:C2:C:C3:O:C(:C:C:3:C:C:2:O:1)C(C1:C:C2:C:C3:O:C(:C:C:3:C:C:2:O:1)C(:O):O)(C1:C:C2:C:C3:O:C(:C:C:3:C:C:2:O:1)C(:O):O)C1:C:C2:C:C3:O:C(:C:C:3:C:C:2:O:1)C(:O):O,1
SR_brl_v1-4c_V_1_Ch_v2-4c_bicyclooctane_Ch_2B_2CH3_Ch_1x1x2,0.09222,0.8789,0.233699,6276.28,1466.76,21.9373,19.13496,84977.46174,,,,1380,,54,48,48,C58H52O4V1,0.00877193,4,4c_V_1_Ch,,None,1
SR_cer_v1-3c_B_Ch_v2-6c_bicyclooctane_Ch_v3-6c_CdZn_1_Ch_ntn_edge_1B_2CH3_Ch_2x2x1,0.16421,0.69892,0.852403,2484.93,2118.16,8.80305,5.98477,45819.69314,,,,1648,,256,256,192,C52Cd3H34O13Zn1,0.04040404,6,6c_CdZn_1_Ch,196,CC1:C:C(C2:C:C(:C:C(:C:2)C(:O):O)C(:O):O):C(C):C:C:1C1=C(C2:C:C(C):C(:C:C:2C)C2:C:C(:C:C(:C:2)C(:O):O)C(:O):O)C2C(=C(C3:C:C(C):C(:C:C:3C)C3:C:C(:C:C(:C:3)C(:O):O)C(:O):O)C1C(=C2C1:C:C(C):C(:C:C:1C)C1:C:C(:C:C(:C:1)C(:O):O)C(:O):O)C1:C:C(C):C(:C:C:1C)C1:C:C(:C:C(:C:1)C(:O):O)C(:O):O)C1:C:C(C):C(:C:C:1C)C1:C:C(:C:C(:C:1)C(:O):O)C(:O):O,1
SR_crs_v1-6c_CdZn_1_Ch_1B_2SH_Ch_1x1x1,0.06886,0.81968,0.611735,2677.63,1638,18.32124,12.17758,47921.17878,,,,944,,256,256,192,C24Cd3H12O13S6Zn1,0.072727273,6,6c_CdZn_1_Ch,18,O:C(:O)C1:C:C(S):C(:C:C:1S)C(:O):O,1
SR_ces_v1-4c_B_Ch_v2-6c_bicyclooctane_Ch_v3-4c_V_1_Ch_1B_2CH3_Ch_2x2x2,0.26704,0.66216,0.679875,2615.04,1777.9,11.2823,5.63863,89694.49201,,,,3952,,216,192,192,C128H104O12V3,0.012295082,4,4c_V_1_Ch,,None,1
SR_cer_v1-3c_triazine_Ch_v2-6c_bicyclooctane_Ch_v3-6c_Zn_1_Ch_2B_2CF3_Ch_ntn_edge_2x2x1,0.12324,0.68354,0.914545,2116.19,1935.35,10.08451,4.88017,70176.27552,,,,2272,,256,256,192,C67F36H13N9O13Zn4,0.028985507,6,6c_Zn_1_Ch,274,O:C(:O)C1:N:C(:N:C(:N:1)C1:C:C(:C(:C:C:1C(F)(F)F)C1:C:C(:C(:C:C:1C(F)(F)F)C1=C(C2:C:C(:C(:C:C:2C(F)(F)F)C2:C:C(:C(:C:C:2C(F)(F)F)C2:N:C(:N:C(:N:2)C(:O):O)C(:O):O)C(F)(F)F)C(F)(F)F)C2C(=C(C3:C:C(:C(:C:C:3C(F)(F)F)C3:C:C(:C(:C:C:3C(F)(F)F)C3:N:C(:N:C(:N:3)C(:O):O)C(:O):O)C(F)(F)F)C(F)(F)F)C1C(=C2C1:C:C(:C(:C:C:1C(F)(F)F)C1:C:C(:C(:C:C:1C(F)(F)F)C1:N:C(:N:C(:N:1)C(:O):O)C(:O):O)C(F)(F)F)C(F)(F)F)C1:C:C(:C(:C:C:1C(F)(F)F)C1:C:C(:C(:C:C:1C(F)(F)F)C1:N:C(:N:C(:N:1)C(:O):O)C(:O):O)C(F)(F)F)C(F)(F)F)C1:C:C(:C(:C:C:1C(F)(F)F)C1:C:C(:C(:C:C:1C(F)(F)F)C1:N:C(:N:C(:N:1)C(:O):O)C(:O):O)C(F)(F)F)C(F)(F)F)C(F)(F)F)C(F)(F)F)C(:O):O,1
SR_crsd_v1-8c_Mn_1_Ch_v2-4c_1anC_Ch_ntn_edge_1B_2F_Ch_1x1x1,0.22572,0.6473,0.950142,2059.23,1956.57,7.01815,4.38631,17616.20314,,,,688,,160,160,128,C33Cl1F8H8Mn4N32,0.048780488,8,8c_Mn_1_Ch,"61,10",FC1:C:C(:C(F):C:C:1C1:N:N:N:N:1)C(C1:C:C(F):C(:C:C:1F)C1:N:N:N:N:1)(C1:C:C(F):C(:C:C:1F)C1:N:N:N:N:1)C1:C:C(F):C(:C:C:1F)C1:N:N:N:N:1___N1:N:N:C(:N:1)C1:N:N:N:N:1,1
SR_ddc_v1-3c_Cu_imadazoline_Ch_v2-4c_1anC_Ch_1B_2DoU_Ch_1x1x1,0.04682,0.95766,0.0962895,7262.74,699.325,50.59026,34.41739,135795.8998,,,,852,,48,48,48,C37Cu2H28N4,0.028985507,3,3c_Cu_imadazoline_Ch,276,C(=CC1:C:N:N:C:1)C1:C:C:C(C=CC2(C=CC3:C:C:C(C=CC4:C:N:N:C:4):C:C:3)C=CC3:C:C:C(C=CC(C=CC4:C:C:C(C=CC5:C:N:N:C:5):C:C:4)(C=CC4:C:C:C(C=CC5:C:N:N:C:5):C:C:4)C=CC4:C:C:C(C=CC(C=CC5:C:C:C(C=CC6:C:N:N:C:6):C:C:5)(C=CC5:C:C:C(C=CC6:C:N:N:C:6):C:C:5)C=CC5:C:C:C(C=CC(C=CC6:C:C:C(C=CC7:C:N:N:C:7):C:C:6)(C=CC6:C:C:C(C=CC7:C:N:N:C:7):C:C:6)C=CC6:C:C:C(C=C2):C:C:6):C:C:5):C:C:4):C:C:3):C:C:1,1
SR_dmb_v1-3c_Cu_imadazoline_Ch_v2-3c_pyrrole_Ch_1B_2OH_Ch_1x1x1,0.058,0.89502,0.277071,5368.88,1487.56,21.83172,16.2444,37263.67041,,,,536,,48,48,48,C31Cu3H20N7O6,0.046875,3,3c_Cu_imadazoline_Ch,"102,26",OC1:C:C(:C(O):C:C:1C1:C:N:N:C:1)C1:C:C:C(C2:C:C(O):C(:C:C:2O)C2:C:C:C(C3:C:C(O):C(:C:C:3O)C3:C:N:N:C:3):N:2C2:C:C(O):C(:C:C:2O)C2:C:N:N:C:2):N:1C1:C:C(O):C(:C:C:1O)C1:C:N:N:C:1___OC1:C:C(C2:C:N:N:C:2):C(O):C:C:1C1:C:N:N:C:1,1
SR_cdj_v1-3c_triazine_Ch_v2-6c_Zn_1_Ch_2B_4Br_Ch_ntn_edge_1x1x1,0.13748,0.58326,1.66175,0,0,8.23986,3.4146,15656.90554,,,,568,,128,128,96,Br12C33N9O13Zn4,0.059701493,6,6c_Zn_1_Ch,44,O:C(:O)C1:N:C(:N:C(:N:1)C1:C(Br):C(Br):C(:C(Br):C:1Br)C1:C(Br):C(Br):C(C2:N:C(:N:C(:N:2)C(:O):O)C(:O):O):C(Br):C:1Br)C(:O):O,1
SR_ceh_v1-3c_B_Ch_v2-6c_Mg_1_Ch_v3-4c_bicyclooctane_Ch_1B_4CN_Ch_1x1x4,0.36327,0.43522,1.19919,0,0,5.50696,2.96886,29335.28157,,,,1560,,120,120,48,C42H6Mg1N12O4,0.015625,6,6c_Mg_1_Ch,,None,1