name,k,VF,density,ASA_grav,ASA_vol,LPD,PLD,volume,,,,N_atoms,,N_metal_containing_bonds,N_metal_nonmetal_bonds,N_metal_linker_bonds,formula,metal_nonmetal_ratio,metal_node_connectivity,metal_node_name,N_atoms_per_linker,linker_SMILES,N_ccs
SR_edq_v1-3c_B_Ch_v2-6c_Fe_1_Ch_ntn_edge_1B_2OH_Ch_1x1x1,0.16278,0.7812,0.516438,3378.86,1744.97,13.73995,10.50507,33991.19719,,,,968,,120,120,96,C60Fe3H33O25,0.025423729,6,6c_Fe_1_Ch,78,O:C(:O)C1:C:C(O):C(:C:C:1O)C1:C:C(:C:C(:C:1)C1:C:C(O):C(:C:C:1O)C(:O):O)C1:C:C(:C:C(:C:1)C1:C:C(O):C(:C:C:1O)C(:O):O)C1:C:C(O):C(:C:C:1O)C(:O):O,1
SR_dnl_v1-4c_porphyrin_Ch_v2-6c_CdZn_1_Ch_v3-3c_triazine_Ch_ntn_edge_1B_2NH2_Ch_1x1x1,0.15916,0.65942,0.849383,1865.91,1584.87,10.96926,6.82055,74901.24762,,,,3536,,256,256,192,C108Cd3H66N30O13Zn1,0.01843318,6,6c_CdZn_1_Ch,432,NC1:C:C2:C(N):C:C:1C1:N:C3:N:C(:N:1)C1:C:C(N):C(:C:C:1N)C1:C4:C:C:C(:N:4):C(C(:O):O):C4:C:C:C(:[NH]:4):C(C(:O):O):C4:C:C:C(:N:4):C(C4:C:C(N):C(:C:C:4N)C4:N:C5:N:C(:N:4)C4:C:C(N):C(:C:C:4N)C4:C6:C:C:C(:N:6):C(C(:O):O):C6:C:C:C(:[NH]:6):C(C(:O):O):C6:C:C:C(:N:6):C(C6:C:C(N):C(:C:C:6N)C6:N:C(:N:C(:N:6)C6:C:C(N):C(:C:C:6N)C6:C7:C:C:C(:N:7):C(C(:O):O):C7:C:C:C(:[NH]:7):C(C(:O):O):C7:C:C:C(:N:7):C(C7:C:C(N):C(:C:C:7N)C7:N:C(:N:C(:N:7)C7:C:C(N):C(:C:C:7N)C7:C8:C:C:C(:N:8):C(C(:O):O):C8:C:C:C(:[NH]:8):C(C(:O):O):C8:C:C:C(:N:8):C(C8:C:C(N):C5:C:C:8N):C5:C:C:C:7:[NH]:5)C5:C:C(N):C(:C:C:5N)C5:C7:C:C:C(:N:7):C(C(:O):O):C7:C:C:C(:[NH]:7):C(C(:O):O):C7:C:C:C(:N:7):C2:C2:C:C:C:5:[NH]:2):C2:C:C:C:6:[NH]:2)C2:C:C(N):C(:C:C:2N)C2:C5:C:C:C(:N:5):C(C(:O):O):C5:C:C:C(:[NH]:5):C(C(:O):O):C5:C:C:C(:N:5):C(C5:C:C(N):C3:C:C:5N):C3:C:C:C:2:[NH]:3):C2:C:C:C:4:[NH]:2):C2:C:C:C:1:[NH]:2,1
SR_dpe_v1-6c_Zr_1_Ch_v2-8c_Zr_1_Ch_v3-4c_porphyrin_Ch_1B_2CF3_Ch_1x1x1,0.12345,0.67406,0.965187,1736.85,1676.39,16.60523,5.69404,42609.81025,,,,1686,,528,528,144,C288F144H190N12O176Zr33,0.040740741,"6,8","6c_Zr_1_Ch,8c_Zr_1_Ch","22,110",O:C(:O)C1:C:C(:C(:C:C:1C(F)(F)F)C(:O):O)C(F)(F)F___O:C(:O)C1:C:C(:C(:C:C:1C(F)(F)F)C1:C2:C:C:C(:N:2):C(C2:C:C(:C(:C:C:2C(F)(F)F)C(:O):O)C(F)(F)F):C2:C:C:C(:[NH]:2):C(C2:C:C(:C(:C:C:2C(F)(F)F)C(:O):O)C(F)(F)F):C2:C:C:C(:N:2):C(C2:C:C(:C(:C:C:2C(F)(F)F)C(:O):O)C(F)(F)F):C2:C:C:C:1:[NH]:2)C(F)(F)F,1
SR_dnr_v1-4c_B_Ch_v2-4c_Ni_1_Ch_v3-3c_B_Ch_1B_2CH3_Ch_1x1x2,0.08773,0.88156,0.243449,5118.69,1246.14,43.77019,42.69724,104484.8681,,,,1584,,108,96,96,C67H55Ni2O8,0.015384615,4,4c_Ni_1_Ch,260,CC1:C:C(C2:C:C(:C:C(:C:2)C2:C:C(C):C(:C:C:2C)C2:C:C(C3:C:C(C):C(:C:C:3C)C3:C:C(:C:C(:C:3)C3:C:C(C):C(:C:C:3C)C(:O):O)C3:C:C(C):C(:C:C:3C)C(:O):O):C(:C:C:2C2:C:C(C):C(:C:C:2C)C2:C:C(:C:C(:C:2)C2:C:C(C):C(:C:C:2C)C(:O):O)C2:C:C(C):C(:C:C:2C)C(:O):O)C2:C:C(C):C(:C:C:2C)C2:C:C(:C:C(:C:2)C2:C:C(C):C(:C:C:2C)C(:O):O)C2:C:C(C):C(:C:C:2C)C(:O):O)C2:C:C(C):C(:C:C:2C)C(:O):O):C(C):C:C:1C(:O):O,1
SR_dna_v1-8c_Co_1_Ch_v2-6c_B_Ch_v3-3c_B_Ch_ntn_edge_1B_2NH2_Ch_1x1x1,0.18355,0.65718,0.848431,1637.98,1389.71,15.612,5.61635,32433.20847,,,,1500,,240,240,192,C60Co4H36N8O17,0.033057851,8,8c_Co_1_Ch,180,NC1:C:C(:C(N):C:C:1C1:C:C(:C:C(:C:1)C(:O):O)C(:O):O)C1:C(C2:C:C(N):C(:C:C:2N)C2:C:C(:C:C(:C:2)C(:O):O)C(:O):O):C(C2:C:C(N):C(:C:C:2N)C2:C:C(:C:C(:C:2)C(:O):O)C(:O):O):C(C2:C:C(N):C(:C:C:2N)C2:C:C(:C:C(:C:2)C(:O):O)C(:O):O):C(C2:C:C(N):C(:C:C:2N)C2:C:C(:C:C(:C:2)C(:O):O)C(:O):O):C:1C1:C:C(N):C(:C:C:1N)C1:C:C(:C:C(:C:1)C(:O):O)C(:O):O,1
SR_ecn_v1-8c_Mn_1_Ch_1B_2SH_Ch_1x1x1,0.15883,0.69292,0.802576,2350.36,1886.34,10.85081,5.77213,58047.5366,,,,1674,,360,360,288,C32Cl1H16Mn4N32S8,0.04494382,8,8c_Mn_1_Ch,22,SC1:C:C(C2:N:N:N:N:2):C(S):C:C:1C1:N:N:N:N:1,1
SR_epq_v1-4c_Ni_1_Ch_v2-6c_B_Ch_v3-3c_B_Ch_1B_2OH_Ch_1x1x1,0.18026,0.76184,0.573898,2397.86,1376.12,24.35444,11.26994,36947.84929,,,,1176,,108,96,96,C25H13Ni1O10,0.020833333,4,4c_Ni_1_Ch,,None,1
SR_epe_v1-4c_V_1_Ch_v2-3c_pyrrole_Ch_v3-4c_V_1_Ch_2B_1TrU_Ch_1x1x1,0.07355,0.97732,0.0477464,7658.85,365.682,94.91517,45.51777,1337426.003,,,,4008,,324,288,288,C98H52N2O12V3,0.018292683,4,4c_V_1_Ch,82,O:C(:O)C1:C:C:C(C#CC2:C:C:C(:C:C:2)C2:C:C:C(C3:C:C:C(C#CC4:C:C:C(:C:C:4)C(:O):O):C:C:3):N:2C2:C:C:C(C#CC3:C:C:C(:C:C:3)C(:O):O):C:C:2):C:C:1,1
SR_ecf_v1-8c_Co_2_Ch_1B_2NO2_Ch_1x1x1,0.28224,0.74884,0.654678,2747.67,1798.84,16.74657,7.00875,25882.33893,,,,654,,120,120,96,C40Cl1Co4H16N32O16,0.038095238,8,8c_Co_2_Ch,26,O:N(:O)C1:C:C(C2C:N:N:N:2):C(:C:C:1C1C:N:N:N:1)N(:O):O,1
SR_dnl_v1-4c_Ni_1_Ch_v2-6c_Ni_1_Ch_v3-3c_B_Ch_1B_2CF3_Ch_ntn_edge_1x1x1,0.19247,0.56878,1.31295,599.75,787.44,9.42239,4.22243,57409.23902,,,,2912,,720,672,576,C39F18H10Ni5O19,0.058139535,"4,6","4c_Ni_1_Ch,6c_Ni_1_Ch","6,66",O:C(:O)C(:O):O___O:C(:O)C1:C:C(:C(:C:C:1C(F)(F)F)C1:C:C(:C:C(:C:1)C1:C:C(:C(:C:C:1C(F)(F)F)C(:O):O)C(F)(F)F)C1:C:C(:C(:C:C:1C(F)(F)F)C(:O):O)C(F)(F)F)C(F)(F)F,1
SR_ecf_v1-8c_Mn_1_Ch_1B_2CH3_Ch_1x1x1,0.14346,0.7816,0.526327,3498.26,1841.23,17.72973,7.01341,26612.55023,,,,654,,120,120,96,C40Cl1H32Mn4N32,0.038095238,8,8c_Mn_1_Ch,26,CC1:C:C(C2:N:N:N:N:2):C(C):C:C:1C1:N:N:N:N:1,1
SR_dnx_v1-4c_V_1_Ch_v2-4c_1anC_Ch_v3-3c_B_Ch_1B_2SH_Ch_ntn_edge_1x1x1,0.40144,0.37242,1.5488,0,0,6.1134,1.41,12402.4228,,,,912,,108,96,96,C19H10O4S4V1,0.027027027,4,4c_V_1_Ch,444,O:C(:O)C1:C:C(S):C(:C:C:1S)C1(C2:C:C3:C:C(:C:2)C(C2:C:C4:C:C(:C:2)C(C2:C:C5:C:C(:C:2)C(C2:C:C6:C:C(:C:2)C(C2:C:C(:C:C(:C:2)C4(C2:C:C(S):C(:C:C:2S)C(:O):O)C2:C:C(S):C(:C:C:2S)C(:O):O)C(C2:C:C1:C:C(:C:2)C(C1:C:C(:C:C(:C:1)C6(C1:C:C(S):C(:C:C:1S)C(:O):O)C1:C:C(S):C(:C:C:1S)C(:O):O)C(C1:C:C(:C:C(:C:1)C5(C1:C:C(S):C(:C:C:1S)C(:O):O)C1:C:C(S):C(:C:C:1S)C(:O):O)C3(C1:C:C(S):C(:C:C:1S)C(:O):O)C1:C:C(S):C(:C:C:1S)C(:O):O)(C1:C:C(S):C(:C:C:1S)C(:O):O)C1:C:C(S):C(:C:C:1S)C(:O):O)(C1:C:C(S):C(:C:C:1S)C(:O):O)C1:C:C(S):C(:C:C:1S)C(:O):O)(C1:C:C(S):C(:C:C:1S)C(:O):O)C1:C:C(S):C(:C:C:1S)C(:O):O)(C1:C:C(S):C(:C:C:1S)C(:O):O)C1:C:C(S):C(:C:C:1S)C(:O):O)(C1:C:C(S):C(:C:C:1S)C(:O):O)C1:C:C(S):C(:C:C:1S)C(:O):O)(C1:C:C(S):C(:C:C:1S)C(:O):O)C1:C:C(S):C(:C:C:1S)C(:O):O)(C1:C:C(S):C(:C:C:1S)C(:O):O)C1:C:C(S):C(:C:C:1S)C(:O):O)C1:C:C(S):C(:C:C:1S)C(:O):O,1
SR_dna_v1-8c_Co_1_Ch_v2-6c_B_Ch_v3-3c_B_Ch_ntn_edge_1B_2CH3_Ch_1x1x1,0.21506,0.67414,0.77519,1894.7,1468.76,17.483,6.30002,35196.5084,,,,1596,,240,240,192,C68Co4H44O17,0.031007752,8,8c_Co_1_Ch,192,CC1:C:C(:C(C):C:C:1C1:C:C(:C:C(:C:1)C(:O):O)C(:O):O)C1:C(C2:C:C(C):C(:C:C:2C)C2:C:C(:C:C(:C:2)C(:O):O)C(:O):O):C(C2:C:C(C):C(:C:C:2C)C2:C:C(:C:C(:C:2)C(:O):O)C(:O):O):C(C2:C:C(C):C(:C:C:2C)C2:C:C(:C:C(:C:2)C(:O):O)C(:O):O):C(C2:C:C(C):C(:C:C:2C)C2:C:C(:C:C(:C:2)C(:O):O)C(:O):O):C:1C1:C:C(C):C(:C:C:1C)C1:C:C(:C:C(:C:1)C(:O):O)C(:O):O,1
SR_ecf_v1-8c_Co_1_Ch_1B_4CN_Ch_2x2x2,0.21119,0.5506,1.17357,803.703,943.202,11.1939,3.9635,103926.2396,,,,4080,,960,960,768,C48Co4N16O17,0.049382716,8,8c_Co_1_Ch,20,N#CC1:C(C#N):C(C(:O):O):C(C#N):C(C#N):C:1C(:O):O,1
SR_dnl_v1-4c_porphyrin_Ch_v2-6c_Ni_1_Ch_v3-3c_triazine_Ch_ntn_edge_1TrU_Ch_1x1x1,0.24153,0.66786,0.808146,2327.27,1880.78,10.47586,5.45743,57711.1104,,,,2432,,288,288,192,C42H16N9Ni2O7,0.027027027,6,6c_Ni_1_Ch,288,O:C(:O)C1:C2:C:C:C(:N:2):C2C#CC3:N:C4C#CC5:C6:C:C:C(:N:6):C(C(:O):O):C6:C:C:C(:[NH]:6):C(C(:O):O):C6:C:C:C(:N:6):C(C#CC6:N:C7C#CC8:C9:C:C:C(:N:9):C(C(:O):O):C9:C:C:C(:[NH]:9):C(C(:O):O):C9:C:C:C(:N:9):C(C#CC9:N:C(C#CC(:C%10:C:C:C(:N:%10):C(C(:O):O):C%10:C:C:C:1:[NH]:%10):C1:C:C:C:2:[NH]:1):N:C(C#CC1:C2:C:C:C(:N:2):C(C(:O):O):C2:C:C:C(:[NH]:2):C(C(:O):O):C2:C:C:C(:N:2):C(C#CC2:N:C(C#CC%10:C%11:C:C:C(:N:%11):C(C(:O):O):C%11:C:C:C(:[NH]:%11):C(C(:O):O):C%11:C:C:C(:N:%11):C(C#CC(:N:3):N:4):C3:C:C:C:%10:[NH]:3):N:C(C#CC3:C4:C:C:C(:N:4):C(C(:O):O):C4:C:C:C(:[NH]:4):C(C(:O):O):C4:C:C:C(:N:4):C(C#CC(:N:6):N:7):C4:C:C:C:3:[NH]:4):N:2):C2:C:C:C:1:[NH]:2):N:9):C1:C:C:C:8:[NH]:1):C1:C:C:C:5:[NH]:1,1
SR_dni_v1-8c_Co_1_Ch_v2-3c_triazine_Ch_v3-3c_B_Ch_1B_2DoU_Ch_1x1x1,0.08481,0.92182,0.159066,6906.04,1098.52,41.34522,13.44323,159491.9903,,,,1734,,120,120,96,C156Co4H108N4O17,0.014035088,8,8c_Co_1_Ch,213,O:C(:O)C=CC1:C:C:C(C=CC2:C:C(C=CC3:C:C:C(C=CC(:O):O):C:C:3):C:C(C=CC3:C:C:C(C=CC4:N:C(C=CC5:C:C:C(C=CC6:C:C(C=CC7:C:C:C(C=CC(:O):O):C:C:7):C:C(C=CC7:C:C:C(C=CC(:O):O):C:C:7):C:6):C:C:5):N:C(C=CC5:C:C:C(C=CC6:C:C(C=CC7:C:C:C(C=CC(:O):O):C:C:7):C:C(C=CC7:C:C:C(C=CC(:O):O):C:C:7):C:6):C:C:5):N:4):C:C:3):C:2):C:C:1,1
SR_epe_v1-4c_Cu_1_Ch_v2-3c_pyrrole_Ch_v3-4c_Cu_1_Ch_1B_2thiophene_Ch_1x1x1,0.04545,0.96462,0.0884644,5588.71,494.402,76.1861,39.76224,771463.0186,,,,3144,,324,288,288,C74Cu3H28N2O12S12,0.0234375,4,4c_Cu_1_Ch,64,O:C(:O)C1:C:C2:C:C3:S:C(:C:C:3:C:C:2:S:1)C1:C:C:C(C2:C:C3:C:C4:S:C(:C:C:4:C:C:3:S:2)C(:O):O):N:1C1:C:C2:C:C3:S:C(:C:C:3:C:C:2:S:1)C(:O):O,1
SR_ecg_v1-8c_Co_1_Ch_1B_2NO2_Ch_1x1x2,0.2021,0.54862,1.27718,683.344,872.755,9.97204,6.39565,45570.14728,,,,2040,,480,480,384,C32Co4H8N8O33,0.049382716,8,8c_Co_1_Ch,20,O:C(:O)C1:C:C(:C(:C:C:1N(:O):O)C(:O):O)N(:O):O,1
SR_eft_v1-4c_porphyrin_Ch_v2-8c_Zr_1_Ch_v3-3c_B_Ch_ntn_edge_1B_2NH2_Ch_2x2x2,0.15359,0.7455,0.619547,3013.01,1866.7,14.58409,7.58381,56334.89328,,,,1952,,384,384,128,C50H43N10O16Zr3,0.025210084,8,8c_Zr_1_Ch,206,NC1:C:C(C2:C:C(:C:C(:C:2)C2:C3:C:C:C(:N:3):C(C3:C:C(:C:C(:C:3)C3:C:C(N):C(:C:C:3N)C(:O):O)C3:C:C(N):C(:C:C:3N)C(:O):O):C3:C:C:C(:[NH]:3):C(C3:C:C(:C:C(:C:3)C3:C:C(N):C(:C:C:3N)C(:O):O)C3:C:C(N):C(:C:C:3N)C(:O):O):C3:C:C:C(:N:3):C(C3:C:C(:C:C(:C:3)C3:C:C(N):C(:C:C:3N)C(:O):O)C3:C:C(N):C(:C:C:3N)C(:O):O):C3:C:C:C:2:[NH]:3)C2:C:C(N):C(:C:C:2N)C(:O):O):C(N):C:C:1C(:O):O,1
SR_dnj_v1-8c_Co_1_Ch_v2-6c_B_Ch_v3-3c_pyrrole_Ch_2B_2NO2_Ch_1x1x1,0.07622,0.83806,0.39748,2865.49,1138.97,33.58414,22.11658,122693.6755,,,,2382,,120,120,96,C172Co4H56N52O113,0.010178117,8,8c_Co_1_Ch,,None,1
SR_epa_v1-6c_Mg_1_Ch_v2-6c_Mg_1_Ch_v3-4c_B_Ch_ntn_edge_1DoU_Ch_2x2x1,0.22824,0.70866,0.667129,2815.89,1878.56,12.07348,6.39973,112382.7432,,,,3168,,1440,1440,576,C15H9Mg4O16,0.1,6,6c_Mg_1_Ch,"6,36",O:C(:O)C(:O):O___O:C(:O)C=CC1:C:C(C=CC(:O):O):C(C=CC(:O):O):C:C:1C=CC(:O):O,1
SR_dmd_v1-4c_In_1_Ch_v2-3c_pyrrole_Ch_ntn_edge_1B_2OH_Ch_2x2x2,0.19763,0.64008,1.01956,1635.19,1667.17,6.26872,5.44863,16801.56263,,,,624,,128,128,128,C18H8In1N2O10,0.026315789,4,4c_In_1_Ch,38,O:C(:O)C1:C:C:C(C2:C:C(O):C(:C:C:2O)C2:C:C:C(C(:O):O):N:2C(:O):O):N:1C(:O):O,1
SR_epa_v1-6c_Mg_1_Ch_v2-6c_Mg_1_Ch_v3-4c_B_Ch_1B_2CF3_Ch_1x1x1,0.13861,0.71158,0.730503,2302.14,1681.72,16.59282,6.08161,53134.97755,,,,1512,,360,360,144,C35F18H11Mg4O16,0.05,6,6c_Mg_1_Ch,"22,84",O:C(:O)C1:C:C(:C(:C:C:1C(F)(F)F)C(:O):O)C(F)(F)F___O:C(:O)C1:C:C(:C(:C:C:1C(F)(F)F)C1:C:C(:C(:C:C:1C1:C:C(:C(:C:C:1C(F)(F)F)C(:O):O)C(F)(F)F)C1:C:C(:C(:C:C:1C(F)(F)F)C(:O):O)C(F)(F)F)C1:C:C(:C(:C:C:1C(F)(F)F)C(:O):O)C(F)(F)F)C(F)(F)F,1
SR_eft_v1-4c_porphyrin_Ch_v2-8c_Co_2_Ch_v3-3c_pyrrole_Ch_ntn_edge_1B_2NH2_Ch_2x2x2,0.15413,0.71192,0.655585,3072.24,2014.11,9.13257,7.14465,46262.50923,,,,1816,,160,160,128,C100Cl1Co4H74N48,0.01793722,8,8c_Co_2_Ch,222,NC1:C:C(:C(N):C:C:1C1C:N:N:N:1)C1:C:C:C(C2:C3:C:C:C(:N:3):C(C3:C:C:C(C4:C:C(N):C(:C:C:4N)C4C:N:N:N:4):N:3C3:C:C(N):C(:C:C:3N)C3C:N:N:N:3):C3:C:C:C(:[NH]:3):C(C3:C:C:C(C4:C:C(N):C(:C:C:4N)C4C:N:N:N:4):N:3C3:C:C(N):C(:C:C:3N)C3C:N:N:N:3):C3:C:C:C(:N:3):C(C3:C:C:C(C4:C:C(N):C(:C:C:4N)C4C:N:N:N:4):N:3C3:C:C(N):C(:C:C:3N)C3C:N:N:N:3):C3:C:C:C:2:[NH]:3):N:1C1:C:C(N):C(:C:C:1N)C1C:N:N:N:1,1
SR_eea_v1-3c_B_Ch_v2-6c_Zr_1_Ch_1DoU_Ch_1x1x1,0.08918,0.82362,0.501883,3247.07,1629.65,20.98775,12.78958,50137.94746,,,,972,,432,432,108,C15H20O16Zr3,0.058823529,6,6c_Zr_1_Ch,30,O:C(:O)C=CC1:C:C(C=CC(:O):O):C:C(C=CC(:O):O):C:1,1
SR_eci_v1-8c_Co_2_Ch_1B_2CH3_Ch_1x1x1,0.18575,0.7284,0.638199,3149.34,2009.91,10.81144,8.33233,25499.68457,,,,936,,160,160,128,C48Cl1Co4H40N24,0.03539823,8,8c_Co_2_Ch,28,CC1:C:C(C2C:N:N:N:2):C(C):C:C:1C1C:N:N:N:1,1
SR_epq_v1-4c_Cu_1_Ch_v2-6c_B_Ch_v3-3c_B_Ch_1B_2furan_Ch_1x1x1,0.17134,0.88572,0.274622,4789.62,1315.34,37.37549,19.12308,98832.98886,,,,1464,,108,96,96,C37Cu1H13O10,0.016666667,4,4c_Cu_1_Ch,,None,1
SR_ecf_v1-8c_Mn_1_Ch_1B_2CF3_Ch_1x1x1,0.11479,0.74604,0.712698,2602.74,1854.97,16.72689,5.81695,26566.4007,,,,654,,120,120,96,C40Cl1F24H8Mn4N32,0.038095238,8,8c_Mn_1_Ch,26,FC(F)(F)C1:C:C(C2:N:N:N:N:2):C(:C:C:1C1:N:N:N:N:1)C(F)(F)F,1
SR_eps_v1-3c_B_Ch_v2-8c_Mn_1_Ch_v3-4c_porphyrin_Ch_ntn_edge_1B_4CN_Ch_1x1x1,0.21849,0.80012,0.45093,3331.81,1502.41,24.35522,9.0685,31131.2717,,,,681,,60,60,48,C132Cl1H22Mn4N68,0.01793722,8,8c_Mn_1_Ch,222,N#CC1:C(C#N):C(C2:N:N:N:N:2):C(C#N):C(C#N):C:1C1:C:C(:C:C(:C:1)C1:C2:C:C:C(:N:2):C(C2:C:C(:C:C(:C:2)C2:C(C#N):C(C#N):C(C3:N:N:N:N:3):C(C#N):C:2C#N)C2:C(C#N):C(C#N):C(C3:N:N:N:N:3):C(C#N):C:2C#N):C2:C:C:C(:[NH]:2):C(C2:C:C(:C:C(:C:2)C2:C(C#N):C(C#N):C(C3:N:N:N:N:3):C(C#N):C:2C#N)C2:C(C#N):C(C#N):C(C3:N:N:N:N:3):C(C#N):C:2C#N):C2:C:C:C(:N:2):C(C2:C:C(:C:C(:C:2)C2:C(C#N):C(C#N):C(C3:N:N:N:N:3):C(C#N):C:2C#N)C2:C(C#N):C(C#N):C(C3:N:N:N:N:3):C(C#N):C:2C#N):C2:C:C:C:1:[NH]:2)C1:C(C#N):C(C#N):C(C2:N:N:N:N:2):C(C#N):C:1C#N,1
SR_dnj_v1-8c_Co_1_Ch_v2-6c_B_Ch_v3-3c_pyrrole_Ch_2B_2Br_Ch_1x1x1,0.05223,0.8489,0.530266,2194.74,1163.79,32.88565,22.29129,122596.9535,,,,1806,,120,120,96,Br48C172Co4H56N4O17,0.013468013,8,8c_Co_1_Ch,444,O:C(:O)C1:C:C(Br):C(:C:C:1Br)C1:C:C(Br):C(:C:C:1Br)C1:C:C:C(C2:C:C(Br):C(:C:C:2Br)C2:C:C(Br):C(:C:C:2Br)C(:O):O):N:1C1:C:C(Br):C(:C:C:1Br)C1:C:C(Br):C(:C:C:1Br)C1:C(C2:C:C(Br):C(:C:C:2Br)C2:C:C(Br):C(:C:C:2Br)N2:C(:C:C:C:2C2:C:C(Br):C(:C:C:2Br)C2:C:C(Br):C(:C:C:2Br)C(:O):O)C2:C:C(Br):C(:C:C:2Br)C2:C:C(Br):C(:C:C:2Br)C(:O):O):C(C2:C:C(Br):C(:C:C:2Br)C2:C:C(Br):C(:C:C:2Br)N2:C(:C:C:C:2C2:C:C(Br):C(:C:C:2Br)C2:C:C(Br):C(:C:C:2Br)C(:O):O)C2:C:C(Br):C(:C:C:2Br)C2:C:C(Br):C(:C:C:2Br)C(:O):O):C(C2:C:C(Br):C(:C:C:2Br)C2:C:C(Br):C(:C:C:2Br)N2:C(:C:C:C:2C2:C:C(Br):C(:C:C:2Br)C2:C:C(Br):C(:C:C:2Br)C(:O):O)C2:C:C(Br):C(:C:C:2Br)C2:C:C(Br):C(:C:C:2Br)C(:O):O):C(C2:C:C(Br):C(:C:C:2Br)C2:C:C(Br):C(:C:C:2Br)N2:C(:C:C:C:2C2:C:C(Br):C(:C:C:2Br)C2:C:C(Br):C(:C:C:2Br)C(:O):O)C2:C:C(Br):C(:C:C:2Br)C2:C:C(Br):C(:C:C:2Br)C(:O):O):C:1C1:C:C(Br):C(:C:C:1Br)C1:C:C(Br):C(:C:C:1Br)N1:C(:C:C:C:1C1:C:C(Br):C(:C:C:1Br)C1:C:C(Br):C(:C:C:1Br)C(:O):O)C1:C:C(Br):C(:C:C:1Br)C1:C:C(Br):C(:C:C:1Br)C(:O):O,1
SR_eft_v1-4c_porphyrin_Ch_v2-8c_Co_1_Ch_v3-3c_pyrrole_Ch_1B_2NO2_Ch_2x1x2,0.14738,0.6857,0.782655,2220.78,1738.11,10.60717,8.32913,27990.7378,,,,1036,,80,80,64,C116Co4H42N32O65,0.015686275,8,8c_Co_1_Ch,254,O:C(:O)C1:C:C(:C(:C:C:1N(:O):O)C1:C:C:C(C2:C:C(:C(:C:C:2N(:O):O)C2:C3:C:C:C(:N:3):C(C3:C:C(:C(:C:C:3N(:O):O)C3:C:C:C(C4:C:C(:C(:C:C:4N(:O):O)C(:O):O)N(:O):O):N:3C3:C:C(:C(:C:C:3N(:O):O)C(:O):O)N(:O):O)N(:O):O):C3:C:C:C(:[NH]:3):C(C3:C:C(:C(:C:C:3N(:O):O)C3:C:C:C(C4:C:C(:C(:C:C:4N(:O):O)C(:O):O)N(:O):O):N:3C3:C:C(:C(:C:C:3N(:O):O)C(:O):O)N(:O):O)N(:O):O):C3:C:C:C(:N:3):C(C3:C:C(:C(:C:C:3N(:O):O)C3:C:C:C(C4:C:C(:C(:C:C:4N(:O):O)C(:O):O)N(:O):O):N:3C3:C:C(:C(:C:C:3N(:O):O)C(:O):O)N(:O):O)N(:O):O):C3:C:C:C:2:[NH]:3)N(:O):O):N:1C1:C:C(:C(:C:C:1N(:O):O)C(:O):O)N(:O):O)N(:O):O,1
SR_dnl_v1-4c_Ni_1_Ch_v2-6c_Ni_1_Ch_v3-3c_B_Ch_ntn_edge_1x1x1,0.32136,0.57974,1.45476,238.216,346.547,6.64437,3.77604,28554.2683,,,,1376,,720,672,576,C15H4Ni5O19,0.131578947,"4,6","4c_Ni_1_Ch,6c_Ni_1_Ch","6,18",O:C(:O)C(:O):O___O:C(:O)C1:C:C(:C:C(:C:1)C(:O):O)C(:O):O,1
SR_epa_v1-6c_B_Ch_v2-6c_Mg_1_Ch_v3-4c_pyrene_Ch_1B_2Br_Ch_2x2x1,0.61363,0.60498,1.23898,1130.07,1400.13,11.12689,5.04042,105528.6051,,,,3744,,360,360,144,Br6C31H10Mg1O4,0.019607843,6,6c_Mg_1_Ch,,None,1
SR_dpd_v1-4c_bicyclooctane_Ch_v2-4c_Cu_1_Ch_v3-4c_1anC_Ch_1B_2CN_Ch_1x1x1,0.0972,0.77406,0.519381,2812.98,1461.01,20.66781,8.23011,85422.95392,,,,2264,,216,192,192,C173Cu6H48N32O24,0.02166065,4,4c_Cu_1_Ch,277,N#CC1:C:C(C(:O):O):C(C#N):C:C:1C1=CC2(C=C(C3:C:C(C#N):C(:C:C:3C#N)C(:O):O)C1C(=C2)C1:C:C(C#N):C(:C:C:1C#N)C(:O):O)C1:C:C(C#N):C(:C:C:1C#N)C(C1:C:C(C#N):C(:C:C:1C#N)C12C=C(C3:C:C(C#N):C(:C:C:3C#N)C(:O):O)C(C(=C1)C1:C:C(C#N):C(:C:C:1C#N)C(:O):O)C(=C2)C1:C:C(C#N):C(:C:C:1C#N)C(:O):O)(C1:C:C(C#N):C(:C:C:1C#N)C12C=C(C3:C:C(C#N):C(:C:C:3C#N)C(:O):O)C(C(=C1)C1:C:C(C#N):C(:C:C:1C#N)C(:O):O)C(=C2)C1:C:C(C#N):C(:C:C:1C#N)C(:O):O)C1:C:C(C#N):C(:C:C:1C#N)C12C=C(C3:C:C(C#N):C(:C:C:3C#N)C(:O):O)C(C(=C1)C1:C:C(C#N):C(:C:C:1C#N)C(:O):O)C(=C2)C1:C:C(C#N):C(:C:C:1C#N)C(:O):O,1
SR_dnu_v1-4c_ethene_Ch_v2-8c_Mn_1_Ch_v3-4c_ethene_Ch_1B_2Br_Ch_ntn_edge_1x1x1,0.4301,0.48736,1.7287,0,0,12.177,3.21977,32446.87737,,,,1644,,240,240,192,Br16C68Cl1H16Mn4N32,0.030075188,8,8c_Mn_1_Ch,,None,1
SR_epq_v1-4c_V_1_Ch_v2-6c_B_Ch_v3-3c_B_Ch_1B_2furan_Ch_1x1x1,0.17212,0.88262,0.275232,4829.81,1329.32,36.57839,18.78271,96788.98116,,,,1464,,108,96,96,C37H13O10V1,0.016666667,4,4c_V_1_Ch,,None,1
SR_eft_v1-4c_porphyrin_Ch_v2-8c_Mn_1_Ch_v3-3c_triazine_Ch_1B_4F_Ch_ntn_edge_2x2x3,0.78691,0.78492,0.577037,3505.11,2022.58,13.05807,10.60311,69421.46553,,,,1716,,240,240,192,C64Cl1F16H10Mn4N48,0.028776978,8,8c_Mn_1_Ch,138,FC1:C(F):C(:C(F):C(F):C:1C1:N:C(:N:C(:N:1)C1:N:N:N:N:1)C1:N:N:N:N:1)C1:C2:C:C:C(:N:2):C(C2:C(F):C(F):C(C3:N:C(:N:C(:N:3)C3:N:N:N:N:3)C3:N:N:N:N:3):C(F):C:2F):C2:C:C:C(:[NH]:2):C(C2:C(F):C(F):C(C3:N:C(:N:C(:N:3)C3:N:N:N:N:3)C3:N:N:N:N:3):C(F):C:2F):C2:C:C:C(:N:2):C(C2:C(F):C(F):C(C3:N:C(:N:C(:N:3)C3:N:N:N:N:3)C3:N:N:N:N:3):C(F):C:2F):C2:C:C:C:1:[NH]:2,1
SR_dpd_v1-4c_bicyclooctane_Ch_v2-4c_V_1_Ch_v3-4c_1anC_Ch_1TrU_Ch_1x1x1,0.11602,0.79256,0.511988,4143.12,2121.23,14.63823,8.49605,42308.46795,,,,984,,216,192,192,C77H16O24V6,0.051282051,4,4c_V_1_Ch,117,O:C(:O)C#CC1=CC2(C#CC(C#CC34C=C(C#CC(:O):O)C(C(C#CC(:O):O)=C3)C(C#CC(:O):O)=C4)(C#CC34C=C(C#CC(:O):O)C(C(C#CC(:O):O)=C3)C(C#CC(:O):O)=C4)C#CC34C=C(C#CC(:O):O)C(C(C#CC(:O):O)=C3)C(C#CC(:O):O)=C4)C=C(C#CC(:O):O)C1C(C#CC(:O):O)=C2,1
SR_dpb_v1-3c_B_Ch_v2-6c_Mg_1_Ch_v3-3c_B_Ch_ntn_edge_1x1x1,0.59415,0.70048,0.688366,2873.22,1977.83,11.41552,5.65424,75678.23656,,,,2688,,960,960,384,C6H3Mg1O4,0.076923077,6,6c_Mg_1_Ch,54,O:C(:O)C1:C:C(:C:C(:C:1)C1:C:C(:C:C(:C:1)C1:C:C(:C:C(:C:1)C(:O):O)C(:O):O)C1:C:C(:C:C(:C:1)C(:O):O)C(:O):O)C(:O):O,1
SR_eft_v1-4c_porphyrin_Ch_v2-8c_Mn_1_Ch_v3-3c_triazine_Ch_1B_2NH2_Ch_ntn_edge_2x2x3,0.2719,0.78394,0.532413,3893.52,2072.96,12.95791,10.49303,68963.16749,,,,1908,,240,240,192,C64Cl1H34Mn4N56,0.025806452,8,8c_Mn_1_Ch,154,NC1:C:C(:C(N):C:C:1C1:N:C(:N:C(:N:1)C1:N:N:N:N:1)C1:N:N:N:N:1)C1:C2:C:C:C(:N:2):C(C2:C:C(N):C(:C:C:2N)C2:N:C(:N:C(:N:2)C2:N:N:N:N:2)C2:N:N:N:N:2):C2:C:C:C(:[NH]:2):C(C2:C:C(N):C(:C:C:2N)C2:N:C(:N:C(:N:2)C2:N:N:N:N:2)C2:N:N:N:N:2):C2:C:C:C(:N:2):C(C2:C:C(N):C(:C:C:2N)C2:N:C(:N:C(:N:2)C2:N:N:N:N:2)C2:N:N:N:N:2):C2:C:C:C:1:[NH]:2,1
SR_eci_v1-8c_Co_2_Ch_1B_2OH_Ch_1x1x1,0.16375,0.74816,0.647016,3193.56,2066.28,11.77546,8.40621,25477.66657,,,,808,,160,160,128,C40Cl1Co4H24N24O8,0.041237113,8,8c_Co_2_Ch,24,OC1:C:C(C2C:N:N:N:2):C(O):C:C:1C1C:N:N:N:1,1
SR_epp_v1-4c_ethene_Ch_v2-3c_B_Ch_v3-6c_Mg_1_Ch_1B_2SH_Ch_1x1x1,0.10454,0.82318,0.398983,3351.36,1337.13,29.76507,13.96094,124085.752,,,,2592,,240,240,96,C27H16Mg1O4S6,0.018867925,6,6c_Mg_1_Ch,,None,1
SR_eft_v1-4c_porphyrin_Ch_v2-8c_Zr_1_Ch_v3-3c_B_Ch_1B_2SH_Ch_2x1x2,0.08908,0.79436,0.506501,3250.69,1646.48,14.31384,11.55734,45388.28155,,,,1104,,192,192,64,C62H43N2O16S12Zr3,0.022222222,8,8c_Zr_1_Ch,238,O:C(:O)C1:C:C(S):C(:C:C:1S)C1:C:C(:C:C(:C:1)C1:C:C(S):C(:C:C:1S)C1:C2:C:C:C(:N:2):C(C2:C:C(S):C(:C:C:2S)C2:C:C(:C:C(:C:2)C2:C:C(S):C(:C:C:2S)C(:O):O)C2:C:C(S):C(:C:C:2S)C(:O):O):C2:C:C:C(:[NH]:2):C(C2:C:C(S):C(:C:C:2S)C2:C:C(:C:C(:C:2)C2:C:C(S):C(:C:C:2S)C(:O):O)C2:C:C(S):C(:C:C:2S)C(:O):O):C2:C:C:C(:N:2):C(C2:C:C(S):C(:C:C:2S)C2:C:C(:C:C(:C:2)C2:C:C(S):C(:C:C:2S)C(:O):O)C2:C:C(S):C(:C:C:2S)C(:O):O):C2:C:C:C:1:[NH]:2)C1:C:C(S):C(:C:C:1S)C(:O):O,1
SR_epe_v1-4c_Cu_1_Ch_v2-3c_pyrrole_Ch_v3-4c_Cu_1_Ch_2B_2NH2_Ch_1x1x1,0.03747,0.9589,0.0930226,5784.65,538.103,75.40886,37.0433,795306.9941,,,,4872,,324,288,288,C86Cu3H76N26O12,0.015,4,4c_Cu_1_Ch,100,NC1:C:C(:C(N):C:C:1C(:O):O)C1:C:C(N):C(:C:C:1N)C1:C:C:C(C2:C:C(N):C(:C:C:2N)C2:C:C(N):C(:C:C:2N)C(:O):O):N:1C1:C:C(N):C(:C:C:1N)C1:C:C(N):C(:C:C:1N)C(:O):O,1