name,k,VF,density,ASA_grav,ASA_vol,LPD,PLD,volume,,,,N_atoms,,N_metal_containing_bonds,N_metal_nonmetal_bonds,N_metal_linker_bonds,formula,metal_nonmetal_ratio,metal_node_connectivity,metal_node_name,N_atoms_per_linker,linker_SMILES,N_ccs
SR_ceu_v1-4c_B_Ch_v2-6c_Ni_1_Ch_v3-4c_porphyrin_Ch_1B_2CN_Ch_2x2x1,0.1709,0.74256,0.580516,3556.9,2064.83,11.48985,8.55072,141274.5313,,,,3920,,288,288,192,C150H47N30Ni4O14,0.01659751,6,6c_Ni_1_Ch,474,N#CC1:C:C(:C(C#N):C:C:1C(:O):O)C1:C:C2C3:C:C(C#N):C(:C:C:3C#N)C3:C4:C:C:C(:N:4):C4C5:C:C(C#N):C(:C:C:5C#N)C5:C:C(C6:C:C(C#N):C(:C:C:6C#N)C(:O):O):C(:C:C:5C5:C:C(C#N):C(:C:C:5C#N)C5:C6:C:C:C(:N:6):C(C6:C:C(C#N):C(:C:C:6C#N)C:2:C:C:1C1:C:C(C#N):C(:C:C:1C#N)C(:O):O):C1:C:C:C(:[NH]:1):C1C2:C:C(C#N):C(:C:C:2C#N)C2:C:C(C6:C:C(C#N):C(:C:C:6C#N)C(:O):O):C(:C:C:2C2:C:C(C#N):C(:C:C:2C#N)C2:C6:C:C:C(:N:6):C(C6:C:C(C#N):C(:C:C:6C#N)C6:C:C(C7:C:C(C#N):C(:C:C:7C#N)C(:O):O):C(:C:C:6C6:C:C(C#N):C(:C:C:6C#N)C(:C6:C:C:C:1:N:6):C1:C:C:C:5:[NH]:1)C1:C:C(C#N):C(:C:C:1C#N)C(:O):O):C1:C:C:C(:[NH]:1):C1C5:C:C(C#N):C(:C:C:5C#N)C5:C:C(C6:C:C(C#N):C(:C:C:6C#N)C(:O):O):C(:C:C:5C5:C:C(C#N):C(:C:C:5C#N)C(:C5:C:C:C(:N:5):C(C5:C:C(C#N):C(:C:C:5C#N)C5:C:C(C6:C:C(C#N):C(:C:C:6C#N)C(:O):O):C(:C:C:5C5:C:C(C#N):C(:C:C:5C#N)C(:C5:C:C:C:1:N:5):C1:C:C:C:2:[NH]:1)C1:C:C(C#N):C(:C:C:1C#N)C(:O):O):C1:C:C:C:3:[NH]:1):C1:C:C:C:4:[NH]:1)C1:C:C(C#N):C(:C:C:1C#N)C(:O):O)C1:C:C(C#N):C(:C:C:1C#N)C(:O):O)C1:C:C(C#N):C(:C:C:1C#N)C(:O):O,1
SR_buh_v1-4c_1anC_Ch_v2-12c_Eu_1_Ch_v3-12c_Eu_1_Ch_2B_fused_Ch_1x1x1,0.14942,0.69334,0.839667,2372.42,1992.04,11.69178,4.99829,49403.24363,,,,1992,,384,384,192,C135Eu6H76O32,0.024691358,12,12c_Eu_1_Ch,77,O:C(:O)C1:C:C:C2:C:C(:C:C:C:2:C:1)C(C1:C:C:C2:C:C(:C:C:C:2:C:1)C(:O):O)(C1:C:C:C2:C:C(:C:C:C:2:C:1)C(:O):O)C1:C:C:C2:C:C(:C:C:C:2:C:1)C(:O):O,1
SR_cdj_v1-3c_B_Ch_v2-6c_CdZn_1_Ch_2B_2SH_Ch_ntn_edge_1x1x1,0.05286,0.86174,0.346096,4931.03,1706.61,21.49678,12.67595,99440.03645,,,,1552,,128,128,96,C96Cd3H57O13S24Zn1,0.021052632,6,6c_CdZn_1_Ch,126,O:C(:O)C1:C:C(S):C(:C:C:1S)C1:C:C(S):C(:C:C:1S)C1:C:C(:C:C(:C:1)C1:C:C(S):C(:C:C:1S)C1:C:C(S):C(:C:C:1S)C(:O):O)C1:C:C(:C:C(:C:1)C1:C:C(S):C(:C:C:1S)C1:C:C(S):C(:C:C:1S)C(:O):O)C1:C:C(S):C(:C:C:1S)C1:C:C(S):C(:C:C:1S)C(:O):O,1
SR_cee_v1-3c_B_Ch_v2-6c_B_Ch_v3-4c_Cu_1_Ch_1B_2CH3_Ch_1x1x2,0.15552,0.76972,0.478409,4572.18,2187.38,12.60922,10.89544,26496.34669,,,,780,,54,48,48,C33Cu1H27O4,0.015625,4,4c_Cu_1_Ch,384,CC1:C:C(C2:C:C(:C:C(:C:2)C2:C:C(C):C(:C:C:2C)C2:C(C3:C:C(C):C(:C:C:3C)C3:C:C(:C:C(:C:3)C3:C:C(C):C(:C:C:3C)C(:O):O)C3:C:C(C):C(:C:C:3C)C(:O):O):C(C3:C:C(C):C(:C:C:3C)C3:C:C(:C:C(:C:3)C3:C:C(C):C(:C:C:3C)C(:O):O)C3:C:C(C):C(:C:C:3C)C(:O):O):C(C3:C:C(C):C(:C:C:3C)C3:C:C(:C:C(:C:3)C3:C:C(C):C(:C:C:3C)C(:O):O)C3:C:C(C):C(:C:C:3C)C(:O):O):C(C3:C:C(C):C(:C:C:3C)C3:C:C(:C:C(:C:3)C3:C:C(C):C(:C:C:3C)C(:O):O)C3:C:C(C):C(:C:C:3C)C(:O):O):C:2C2:C:C(C):C(:C:C:2C)C2:C:C(:C:C(:C:2)C2:C:C(C):C(:C:C:2C)C(:O):O)C2:C:C(C):C(:C:C:2C)C(:O):O)C2:C:C(C):C(:C:C:2C)C(:O):O):C(C):C:C:1C(:O):O,1
SR_dma_v1-3c_Cu_imadazoline_Ch_v2-3c_B_Ch_ntn_edge_1B_2NH2_Ch_1x1x1,0.08192,0.94054,0.160805,6051.65,973.134,25.2795,23.58086,61938.34452,,,,488,,48,48,48,C27Cu3H21N10,0.051724138,3,3c_Cu_imadazoline_Ch,"14,176",C1:N:N:C:C:1C1:C:N:N:C:1___NC1:C:C(C2:C:C3:C:C(:C:2)C2:C:C(N):C(:C:C:2N)C2:C:C(:C:C(:C:2)C2:C:C(N):C(:C:C:2N)C2:C:C(:C:C(:C:2)C2:C:C(N):C(:C:C:2N)C2:C:C(:C:C(:C:2)C2:C:C(N):C3:C:C:2N)C2:C:C(N):C(:C:C:2N)C2:C:N:N:C:2)C2:C:C(N):C(:C:C:2N)C2:C:N:N:C:2)C2:C:C(N):C(:C:C:2N)C2:C:N:N:C:2):C(N):C:C:1C1:C:N:N:C:1,1
SR_cee_v1-3c_B_Ch_v2-6c_Mg_1_Ch_v3-4c_porphyrin_Ch_2B_2SH_Ch_ntn_edge_1x1x2,0.08486,0.8272,0.38217,4825.82,1844.28,17.39246,10.00167,54459.44324,,,,984,,60,60,24,C42H25Mg1N2O4S8,0.012345679,6,6c_Mg_1_Ch,308,O:C(:O)C1:C:C2:C:C(:C:1)C1:C:C(S):C(:C:C:1S)C1:C:C(S):C(:C:C:1S)C1:C3:C:C:C(:N:3):C3C4:C:C(S):C(:C:C:4S)C4:C:C(S):C(:C:C:4S)C4:C:C(:C:C(:C:4)C4:C:C(S):C(:C:C:4S)C4:C:C(S):C(:C:C:4S)C4:C5:C:C:C(:N:5):C(C5:C:C(S):C(:C:C:5S)C5:C:C(S):C2:C:C:5S):C2:C:C:C(:[NH]:2):C2C5:C:C(S):C(:C:C:5S)C5:C:C(S):C(:C:C:5S)C5:C:C(:C:C(:C:5)C5:C:C(S):C(:C:C:5S)C5:C:C(S):C(:C:C:5S)C(:C5:C:C:C(:N:5):C(C5:C:C(S):C(:C:C:5S)C5:C:C(S):C(:C:C:5S)C5:C:C(:C:C(:C:5)C5:C:C(S):C(:C:C:5S)C5:C:C(S):C(:C:C:5S)C(:C5:C:C:C:2:N:5):C2:C:C:C:4:[NH]:2)C(:O):O):C2:C:C:C:3:[NH]:2):C2:C:C:C:1:[NH]:2)C(:O):O)C(:O):O,1
SR_cdj_v1-3c_triazine_Ch_v2-6c_CdZn_1_Ch_2B_4CN_Ch_ntn_edge_1x1x1,0.06546,0.82806,0.411118,4448.5,1828.86,19.64872,11.58274,97923.79499,,,,1672,,128,128,96,C135Cd3N57O13Zn1,0.019512195,6,6c_CdZn_1_Ch,136,N#CC1:C(C#N):C(:C(C#N):C(C#N):C:1C(:O):O)C1:C(C#N):C(C#N):C(C2:N:C(:N:C(:N:2)C2:C(C#N):C(C#N):C(:C(C#N):C:2C#N)C2:C(C#N):C(C#N):C(C(:O):O):C(C#N):C:2C#N)C2:N:C(:N:C(:N:2)C2:C(C#N):C(C#N):C(:C(C#N):C:2C#N)C2:C(C#N):C(C#N):C(C(:O):O):C(C#N):C:2C#N)C2:C(C#N):C(C#N):C(:C(C#N):C:2C#N)C2:C(C#N):C(C#N):C(C(:O):O):C(C#N):C:2C#N):C(C#N):C:1C#N,1
SR_cai_v1-5c_bicyclooctane_Ch_v2-6c_CdZn_1_Ch_1B_2SH_Ch_ntn_edge_1x1x2,0.13695,0.73584,0.716828,2855.7,2047.05,11.64526,8.91374,38860.14094,,,,1224,,128,128,96,C76Cd3H40N6O13S14Zn1,0.026845638,6,6c_CdZn_1_Ch,,None,1
SR_cdme_v1-4c_B_Ch_v2-4c_B_Ch_v3-4c_bicyclooctane_Ch_v4-4c_V_1_Ch_4B_fused_8H_Ch_2x2x1,0.14915,0.89044,0.237484,5868.74,1393.73,18.11552,15.14296,183542.7172,,,,2816,,144,128,128,C113H53O8V2,0.011494253,4,4c_V_1_Ch,,None,1
SR_cut_v1-8c_Co_2_Ch_v2-3c_pyrrole_Ch_2B_2F_Ch_1x1x2,0.12445,0.89492,0.251251,5039.24,1266.11,27.36985,25.40718,46801.97642,,,,562,,40,40,32,C152Cl1Co4F40H56N28,0.014440433,8,8c_Co_2_Ch,138,FC1:C:C(:C(F):C:C:1C1C:N:N:N:1)C1:C:C(F):C(:C:C:1F)C1:C:C:C(C2:C:C(F):C(:C:C:2F)C2:C:C(F):C(:C:C:2F)C2:C:C:C(C3:C:C(F):C(:C:C:3F)C3:C:C(F):C(:C:C:3F)C3C:N:N:N:3):N:2C2:C:C(F):C(:C:C:2F)C2:C:C(F):C(:C:C:2F)C2C:N:N:N:2):N:1C1:C:C(F):C(:C:C:1F)C1:C:C(F):C(:C:C:1F)C1C:N:N:N:1,1
SR_btv_v1-5c_bicyclooctane_Ch_v2-6c_Ni_1_Ch_ntn_edge_1B_2DoU_Ch_2x1x1,0.33408,0.7287,0.641154,2419.53,1551.29,15.64755,12.84986,15316.21255,,,,576,,72,72,48,C37H23N3Ni2O7,0.028571429,6,6c_Ni_1_Ch,,None,1
SR_dei_v1-4c_Cd_1_Ch_1B_2CF3_Ch_1x1x1,0.03023,0.89386,0.319455,3554.78,1135.59,28.91988,22.08295,118550.3321,,,,1440,,256,256,256,C20Cd1F12H4O8,0.022727273,4,4c_Cd_1_Ch,22,O:C(:O)C1:C:C(:C(:C:C:1C(F)(F)F)C(:O):O)C(F)(F)F,1
SR_cdz_v1-4c_Cu_1_Ch_v2-4c_Cu_1_Ch_ntn_edge_1TrU_Ch_2x2x2,7.51149,0.6784,1.13736,1632.44,1856.67,8.62685,6.02011,45853.32654,,,,1536,,864,768,768,C3Cu1O4,0.142857143,4,4c_Cu_1_Ch,"8,6",O:C(:O)C#CC(:O):O___O:C(:O)C(:O):O,1
SR_diaj_v1-6c_Al_1_Ch_1B_2Br_Ch_1x1x1,0.12222,0.78778,0.708062,1540.4,1090.7,24.4205,20.4945,239249.1913,,,,4992,,1440,1440,1152,Al3Br6C24H6O13,0.06122449,6,6c_Al_1_Ch,16,O:C(:O)C1:C:C(Br):C(:C:C:1Br)C(:O):O,1
SR_ced_v1-3c_B_Ch_v2-12c_Mn_1_Ch_2B_2CF3_Ch_ntn_edge_2x2x2,0.12321,0.6869,0.844876,2172.63,1835.6,11.56855,7.66418,118860.0532,,,,3880,,336,336,144,C240F144H66Mn8O27,0.016771488,12,12c_Mn_1_Ch,"158,158",OC(:O)C1:C:C(:C(:C:C:1C(F)(F)F)C1:C:C(:C(:C:C:1C(F)(F)F)C1:C:C(:C:C(:C:1)C1:C:C(:C(:C:C:1C(F)(F)F)C1:C:C(:C(:C:C:1C(F)(F)F)C(:O):O)C(F)(F)F)C(F)(F)F)C1:C:C(:C:C(:C:1)C1:C:C(:C(:C:C:1C(F)(F)F)C1:C:C(:C(:C:C:1C(F)(F)F)C(:O):O)C(F)(F)F)C(F)(F)F)C1:C:C(:C(:C:C:1C(F)(F)F)C1:C:C(:C(:C:C:1C(F)(F)F)C(:O):O)C(F)(F)F)C(F)(F)F)C(F)(F)F)C(F)(F)F___OC(:O)C1:C:C(:C(:C:C:1C(F)(F)F)C1:C:C(:C(:C:C:1C(F)(F)F)C1:C:C(:C:C(:C:1)C1:C:C(:C(:C:C:1C(F)(F)F)C1:C:C(:C(:C:C:1C(F)(F)F)C(:O):O)C(F)(F)F)C(F)(F)F)C1:C:C(:C:C(:C:1)C1:C:C(:C(:C:C:1C(F)(F)F)C1:C:C(:C(:C:C:1C(F)(F)F)C(:O):O)C(F)(F)F)C(F)(F)F)C1:C:C(:C(:C:C:1C(F)(F)F)C1:C:C(:C(:C:C:1C(F)(F)F)C(O):O)C(F)(F)F)C(F)(F)F)C(F)(F)F)C(F)(F)F,1
SR_cdle_v1-4c_Cu_1_Ch_v2-4c_1anC_Ch_v3-4c_Cu_1_Ch_1B_2F_Ch_ntn_edge_3x3x1,0.49812,0.684,0.993706,2235.64,2221.57,7.30982,5.26146,41211.56072,,,,1494,,486,432,432,C37Cu6F8H8O24,0.077922078,4,4c_Cu_1_Ch,"6,53",O:C(:O)C(:O):O___O:C(:O)C1:C:C(F):C(:C:C:1F)C(C1:C:C(F):C(:C:C:1F)C(:O):O)(C1:C:C(F):C(:C:C:1F)C(:O):O)C1:C:C(F):C(:C:C:1F)C(:O):O,1
SR_brl_v1-4c_Ni_1_Ch_v2-4c_1anC_Ch_2B_4Br_Ch_ntn_edge_2x2x2,0.20981,0.52888,2.1051,525.269,1105.74,8.97193,6.32669,75761.28878,,,,2304,,216,192,192,Br16C27Ni1O4,0.021276596,4,4c_Ni_1_Ch,282,O:C(:O)C1:C(Br):C(Br):C(:C(Br):C:1Br)C1:C(Br):C(Br):C(:C(Br):C:1Br)C1(C2:C(Br):C(Br):C(:C(Br):C:2Br)C2:C(Br):C(Br):C(C(:O):O):C(Br):C:2Br)C(C2:C(Br):C(Br):C(:C(Br):C:2Br)C2:C(Br):C(Br):C(C(:O):O):C(Br):C:2Br)(C2:C(Br):C(Br):C(:C(Br):C:2Br)C2:C(Br):C(Br):C(C(:O):O):C(Br):C:2Br)C(C2:C(Br):C(Br):C(:C(Br):C:2Br)C2:C(Br):C(Br):C(C(:O):O):C(Br):C:2Br)(C2:C(Br):C(Br):C(:C(Br):C:2Br)C2:C(Br):C(Br):C(C(:O):O):C(Br):C:2Br)C(C2:C(Br):C(Br):C(:C(Br):C:2Br)C2:C(Br):C(Br):C(C(:O):O):C(Br):C:2Br)(C2:C(Br):C(Br):C(:C(Br):C:2Br)C2:C(Br):C(Br):C(C(:O):O):C(Br):C:2Br)C(C2:C(Br):C(Br):C(:C(Br):C:2Br)C2:C(Br):C(Br):C(C(:O):O):C(Br):C:2Br)(C2:C(Br):C(Br):C(:C(Br):C:2Br)C2:C(Br):C(Br):C(C(:O):O):C(Br):C:2Br)C1(C1:C(Br):C(Br):C(:C(Br):C:1Br)C1:C(Br):C(Br):C(C(:O):O):C(Br):C:1Br)C1:C(Br):C(Br):C(:C(Br):C:1Br)C1:C(Br):C(Br):C(C(:O):O):C(Br):C:1Br,1
SR_cen_v1-12c_Ti_1_Ch_v2-4c_1anC_Ch_1TrU_Ch_1DoU_Ch_2x2x2,0.7032,0.57946,1.10075,822.608,905.486,4.84965,4.03535,22736.98753,,,,736,,384,384,192,C11H1O9Ti2,0.095238095,12,12c_Ti_1_Ch,36,O:C(:O)C#CC(C#CC(:O):O)(C#CC(:O):O)C=CC(C#CC(:O):O)(C#CC(:O):O)C#CC(:O):O,1
SR_ctn_v1-3c_B_Ch_v2-4c_In_1_Ch_1B_2NO2_Ch_1x1x1,0.09692,0.82774,0.443742,4583.06,2033.69,14.20865,9.62383,47391.28578,,,,972,,96,96,96,C36H12In1N8O24,0.0125,4,4c_In_1_Ch,60,O:C(:O)C1:C:C(:C(:C:C:1N(:O):O)C1:C:C(:C:C(:C:1)C1:C:C(:C(:C:C:1N(:O):O)C(:O):O)N(:O):O)C1:C:C(:C(:C:C:1N(:O):O)C(:O):O)N(:O):O)N(:O):O,1
SR_cdn_v1-4c_V_1_Ch_v2-4c_V_1_Ch_1B_2OH_Ch_2x2x1,0.71491,0.76612,0.635481,3397.95,2159.33,10.85282,8.04638,165265.4731,,,,4864,,1152,1024,1024,C8H4O6V1,0.055555556,4,4c_V_1_Ch,18,O:C(:O)C1:C:C(O):C(:C:C:1O)C(:O):O,1
SR_cep_v1-6c_Zr_1_Ch_v2-6c_Zr_1_Ch_v3-3c_triazine_Ch_ntn_edge_2x2x2,0.18304,0.56692,1.3886,635.613,882.609,6.89145,3.5714,43727.43548,,,,1872,,1152,1152,288,C6H11N3O16Zr3,0.083333333,6,6c_Zr_1_Ch,15,O:C(:O)C1:N:C(:N:C(:N:1)C(:O):O)C(:O):O,1
SR_cai_v1-5c_bicyclooctane_Ch_v2-6c_Zn_1_Ch_2B_4Br_Ch_ntn_edge_1x1x3,0.5113,0.53382,1.88817,569.167,1074.69,10.21225,8.50391,43384.79163,,,,1788,,192,192,144,Br32C82H12N6O13Zn4,0.027586207,6,6c_Zn_1_Ch,,None,1
SR_cee_v1-3c_Cu_imadazoline_Ch_v2-6c_B_Ch_v3-4c_Cu_1_Ch_1TrU_Ch_1B_4H_Ch_1x1x2,0.11493,0.9002,0.293369,5173.01,1517.6,20.62753,16.6445,53054.8529,,,,552,,126,120,120,C11Cu2H5N3O2,0.095238095,"3,4","3c_Cu_imadazoline_Ch,4c_Cu_1_Ch","108,12",C1:C:C(:C:C:C:1C1:C:N:N:C:1)C1:C(C2:C:C:C(:C:C:2)C2:C:N:N:C:2):C(C2:C:C:C(:C:C:2)C2:C:N:N:C:2):C(C2:C:C:C(:C:C:2)C2:C:N:N:C:2):C(C2:C:C:C(:C:C:2)C2:C:N:N:C:2):C:1C1:C:C:C(:C:C:1)C1:C:N:N:C:1___O:C(:O)C#CC1:C:N:N:C:1,1
SR_cdm_v1-4c_Cu_1_Ch_v2-4c_Cu_1_Ch_1DoU_Ch_ntn_edge_2x2x1,6.72131,0.60212,1.42104,0,0,6.1881,3.57182,35952.18649,,,,1600,,864,768,768,C8Cu3H2O12,0.136363636,4,4c_Cu_1_Ch,"6,10",O:C(:O)C(:O):O___O:C(:O)C=CC(:O):O,1
SR_crsd_v1-8c_Mn_1_Ch_v2-4c_1anC_Ch_1B_4Br_Ch_1x1x1,0.17417,0.42658,2.30665,0,0,5.4393,2.69734,18210.15528,,,,848,,160,160,128,Br24C45Cl1Mn4N32,0.039215686,8,8c_Mn_1_Ch,"61,20",BrC1:C(Br):C(:C(Br):C(Br):C:1C1:N:N:N:N:1)C(C1:C(Br):C(Br):C(C2:N:N:N:N:2):C(Br):C:1Br)(C1:C(Br):C(Br):C(C2:N:N:N:N:2):C(Br):C:1Br)C1:C(Br):C(Br):C(C2:N:N:N:N:2):C(Br):C:1Br___BrC1:C(Br):C(C2:N:N:N:N:2):C(Br):C(Br):C:1C1:N:N:N:N:1,1
SR_dei_v1-4c_In_1_Ch_1B_4H_Ch_1x1x1,0.06476,0.91876,0.226651,4793.29,1086.4,30.30567,21.60588,103885.2641,,,,1056,,256,256,256,C16H8In1O8,0.03125,4,4c_In_1_Ch,16,O:C(:O)C1:C:C:C(:C:C:1)C(:O):O,1
SR_ceu_v1-4c_B_Ch_v2-6c_Ni_1_Ch_v3-4c_porphyrin_Ch_1B_4F_Ch_2x2x1,0.14149,0.76004,0.64248,3131.48,2011.91,13.07211,9.43321,141604.3664,,,,3536,,288,288,192,C126F48H23N6Ni4O14,0.01843318,6,6c_Ni_1_Ch,426,O:C(:O)C1:C(F):C(F):C(C2:C:C3:C(:C:C:2C2:C(F):C(F):C(C(:O):O):C(F):C:2F)C2:C(F):C(F):C(:C(F):C:2F)C2:C4:C:C:C(:N:4):C4C5:C(F):C(F):C(C6:C:C(:C(:C:C:6C6:C(F):C(F):C(:C(F):C:6F)C6:C7:C:C:C(:N:7):C(C7:C(F):C(F):C3:C(F):C:7F):C3:C:C:C(:[NH]:3):C3C7:C(F):C(F):C(C8:C:C(:C(:C:C:8C8:C(F):C(F):C(:C(F):C:8F)C8:C9:C:C:C(:N:9):C(C9:C(F):C(F):C(C%10:C:C(:C(:C:C:%10C%10:C(F):C(F):C(:C(F):C:%10F)C(:C%10:C:C:C:3:N:%10):C3:C:C:C:6:[NH]:3)C3:C(F):C(F):C(C(:O):O):C(F):C:3F)C3:C(F):C(F):C(C(:O):O):C(F):C:3F):C(F):C:9F):C3:C:C:C(:[NH]:3):C3C6:C(F):C(F):C(C9:C:C(:C(:C:C:9C9:C(F):C(F):C(:C(F):C:9F)C(:C9:C:C:C(:N:9):C(C9:C(F):C(F):C(C%10:C:C(:C(:C:C:%10C%10:C(F):C(F):C(:C(F):C:%10F)C(:C%10:C:C:C:3:N:%10):C3:C:C:C:8:[NH]:3)C3:C(F):C(F):C(C(:O):O):C(F):C:3F)C3:C(F):C(F):C(C(:O):O):C(F):C:3F):C(F):C:9F):C3:C:C:C:2:[NH]:3):C2:C:C:C:4:[NH]:2)C2:C(F):C(F):C(C(:O):O):C(F):C:2F)C2:C(F):C(F):C(C(:O):O):C(F):C:2F):C(F):C:6F)C2:C(F):C(F):C(C(:O):O):C(F):C:2F)C2:C(F):C(F):C(C(:O):O):C(F):C:2F):C(F):C:7F)C2:C(F):C(F):C(C(:O):O):C(F):C:2F)C2:C(F):C(F):C(C(:O):O):C(F):C:2F):C(F):C:5F):C(F):C:1F,1
SR_cai_v1-5c_bicyclooctane_Ch_v2-6c_Ni_1_Ch_2B_2NO2_Ch_ntn_edge_1x1x3,0.33486,0.58452,1.06516,1114.49,1187.11,11.45317,9.51433,43233.13396,,,,2208,,216,216,144,C41H15N11Ni2O23,0.022222222,6,6c_Ni_1_Ch,,None,1
SR_cai_v1-5c_bicyclooctane_Ch_v2-6c_Zn_1_Ch_ntn_edge_1B_2CH3_Ch_1x1x2,0.20242,0.7407,0.591516,3410.6,2017.43,11.52819,9.06912,38249.02136,,,,1448,,128,128,96,C90H68N6O13Zn4,0.02259887,6,6c_Zn_1_Ch,,None,1
SR_ced_v1-3c_B_Ch_v2-12c_Mn_1_Ch_ntn_edge_2TrU_Ch_2x2x2,0.2261,0.7828,0.522,4357.65,2274.69,12.50479,8.1432,60039.39924,,,,1192,,336,336,144,C96H18Mn8O27,0.056737589,12,12c_Mn_1_Ch,46,OC(:O)C#CC#CC1:C:C(C#CC#CC(:O):O):C:C(:C:1)C1:C:C(C#CC#CC(O):O):C:C(C#CC#CC(:O):O):C:1,1
SR_cdj_v1-3c_B_Ch_v2-6c_CdZn_1_Ch_1B_4H_Ch_1TrU_Ch_1x1x1,0.108,0.84884,0.440232,4509.92,1985.41,15.47937,10.06461,35191.78767,,,,616,,128,128,96,C45Cd3H15O13Zn1,0.054794521,6,6c_CdZn_1_Ch,48,O:C(:O)C#CC1:C:C(C#CC(:O):O):C:C(:C:1)C1:C:C:C(:C:C:1)C1:C:C(C#CC(:O):O):C:C(C#CC(:O):O):C:1,1
SR_ceu_v1-4c_B_Ch_v2-6c_Zn_1_Ch_v3-4c_porphyrin_Ch_1B_2SH_Ch_2x2x1,0.14255,0.74646,0.609198,3447.42,2100.16,12.67622,8.07173,147066.2321,,,,3872,,256,256,192,C126H69N6O13S24Zn4,0.016806723,6,6c_Zn_1_Ch,474,O:C(:O)C1:C:C(S):C(:C:C:1S)C1:C:C2C3:C:C(S):C(:C:C:3S)C3:C4:C:C:C(:N:4):C4C5:C:C(S):C(:C:C:5S)C5:C:C(C6:C:C(S):C(:C:C:6S)C(:O):O):C(:C:C:5C5:C:C(S):C(:C:C:5S)C5:C6:C:C:C(:N:6):C(C6:C:C(S):C(:C:C:6S)C:2:C:C:1C1:C:C(S):C(:C:C:1S)C(:O):O):C1:C:C:C(:[NH]:1):C1C2:C:C(S):C(:C:C:2S)C2:C:C(C6:C:C(S):C(:C:C:6S)C(:O):O):C(:C:C:2C2:C:C(S):C(:C:C:2S)C2:C6:C:C:C(:N:6):C(C6:C:C(S):C(:C:C:6S)C6:C:C(C7:C:C(S):C(:C:C:7S)C(:O):O):C(:C:C:6C6:C:C(S):C(:C:C:6S)C(:C6:C:C:C:1:N:6):C1:C:C:C:5:[NH]:1)C1:C:C(S):C(:C:C:1S)C(:O):O):C1:C:C:C(:[NH]:1):C1C5:C:C(S):C(:C:C:5S)C5:C:C(C6:C:C(S):C(:C:C:6S)C(:O):O):C(:C:C:5C5:C:C(S):C(:C:C:5S)C(:C5:C:C:C(:N:5):C(C5:C:C(S):C(:C:C:5S)C5:C:C(C6:C:C(S):C(:C:C:6S)C(:O):O):C(:C:C:5C5:C:C(S):C(:C:C:5S)C(:C5:C:C:C:1:N:5):C1:C:C:C:2:[NH]:1)C1:C:C(S):C(:C:C:1S)C(:O):O):C1:C:C:C:3:[NH]:1):C1:C:C:C:4:[NH]:1)C1:C:C(S):C(:C:C:1S)C(:O):O)C1:C:C(S):C(:C:C:1S)C(:O):O)C1:C:C(S):C(:C:C:1S)C(:O):O,1
SR_cut_v1-8c_Co_1_Ch_v2-3c_pyrrole_Ch_1B_2DoU_Ch_1x1x2,0.10125,0.91522,0.175003,6571.16,1149.98,30.91307,26.83603,43087.79838,,,,474,,40,40,32,C124Co4H88N4O17,0.017167382,8,8c_Co_1_Ch,116,O:C(:O)C=CC1:C:C:C(C=CC2:C:C:C(C=CC3:C:C:C(C=CC4:C:C:C(C=CC5:C:C:C(C=CC(:O):O):C:C:5):N:4C=CC4:C:C:C(C=CC(:O):O):C:C:4):C:C:3):N:2C=CC2:C:C:C(C=CC(:O):O):C:C:2):C:C:1,1
SR_crsd_v1-8c_Mn_1_Ch_v2-4c_1anC_Ch_ntn_edge_1B_2SH_Ch_1x1x1,0.26175,0.6066,1.02975,1156.35,1190.75,6.04169,3.745,17707.55808,,,,752,,160,160,128,C33Cl1H16Mn4N32S8,0.044444444,8,8c_Mn_1_Ch,"10,69",N1:N:N:C(:N:1)C1:N:N:N:N:1___SC1:C:C(:C(S):C:C:1C1:N:N:N:N:1)C(C1:C:C(S):C(:C:C:1S)C1:N:N:N:N:1)(C1:C:C(S):C(:C:C:1S)C1:N:N:N:N:1)C1:C:C(S):C(:C:C:1S)C1:N:N:N:N:1,1
SR_cdz_v1-4c_Cu_1_Ch_v2-4c_porphyrin_Ch_1DoU_Ch_ntn_edge_2x1x2,0.87026,0.55214,1.08103,679.028,734.051,5.8237,3.75107,23909.27484,,,,1440,,144,128,128,C24Cu1H12N4O4,0.022727273,4,4c_Cu_1_Ch,"6,328,328",O:C(:O)C(:O):O___O:C(:O)C=CC1:C2:C:C:C(:N:2):C2C3:C4:C:C:C(:N:4):C(C=CC(:O):O):C4:C:C:C(:[NH]:4):C4C5:C6:C:C:C(:N:6):C6C7:C8:C:C:C(:N:8):C8C9:C%10:C:C:C(:N:%10):C(C=CC(:O):O):C%10:C:C:C(:[NH]:%10):C%10C%11:C%12:C:C:C(:N:%12):C(C=CC(:O):O):C%12:C:C:C(:[NH]:%12):C(C%12:C%13:C:C:C(:N:%13):C(C=CC(:O):O):C%13:C:C:C(:[NH]:%13):C(C(:C%13:C:C:C(:N:%13):C(C=CC(:O):O):C%13:C:C:C:8:[NH]:%13):C8:C:C:C:7:[NH]:8):C7:C:C:C(:N:7):C(C(:C7:C:C:C:4:N:7):C4:C:C:C:3:[NH]:4):C3:C:C:C:%12:[NH]:3):C3:C:C:C(:N:3):C(C(:C3:C:C:C(:N:3):C(C3:C4:C:C:C(:N:4):C(C(:C4:C:C:C:%10:N:4):C4:C:C:C:9:[NH]:4):C4:C:C:C(:[NH]:4):C(C(:C4:C:C:C(:N:4):C(C=CC(:O):O):C4:C:C:C:5:[NH]:4):C4:C:C:C:6:[NH]:4):C4:C:C:C(:N:4):C(C=CC(:O):O):C4:C:C:C:3:[NH]:4):C3:C:C:C:1:[NH]:3):C1:C:C:C:2:[NH]:1):C1:C:C:C:%11:[NH]:1___O:C(:O)C=CC1:C2:C:C:C(:N:2):C2C3:C4:C:C:C(:N:4):C4C5:C6:C:C:C(:N:6):C6C7:C8:C:C:C(:N:8):C(C=CC(:O):O):C8:C:C:C(:[NH]:8):C8C9:C%10:C:C:C(:N:%10):C(C=CC(:O):O):C%10:C:C:C(:[NH]:%10):C%10C%11:C%12:C:C:C(:N:%12):C(C=CC(:O):O):C%12:C:C:C(:[NH]:%12):C(C(:C%12:C:C:C(:N:%12):C(C=CC(:O):O):C%12:C:C:C:6:[NH]:%12):C6:C:C:C:5:[NH]:6):C5:C:C:C(:N:5):C(C(:C5:C:C:C(:N:5):C(C5:C6:C:C:C(:N:6):C(C=CC(:O):O):C6:C:C:C(:[NH]:6):C(C6:C%12:C:C:C(:N:%12):C(C=CC(:O):O):C%12:C:C:C(:[NH]:%12):C(C(:C%12:C:C:C(:N:%12):C(C=CC(:O):O):C%12:C:C:C:3:[NH]:%12):C3:C:C:C:4:[NH]:3):C3:C:C:C(:N:3):C(C(:C3:C:C:C:8:N:3):C3:C:C:C:7:[NH]:3):C3:C:C:C:6:[NH]:3):C3:C:C:C(:N:3):C(C(:C3:C:C:C:%10:N:3):C3:C:C:C:9:[NH]:3):C3:C:C:C:5:[NH]:3):C3:C:C:C:1:[NH]:3):C1:C:C:C:2:[NH]:1):C1:C:C:C:%11:[NH]:1,1
SR_cut_v1-8c_Mn_1_Ch_v2-3c_triazine_Ch_ntn_edge_1TrU_Ch_2x2x3,1.90838,0.80102,0.552898,2880.42,1592.58,15.82687,14.08096,41798.87697,,,,876,,240,240,192,C24Cl1Mn4N44,0.057971014,8,8c_Mn_1_Ch,34,C(#CC1:N:C(:N:C(:N:1)C1:N:N:N:N:1)C1:N:N:N:N:1)C1:N:C(:N:C(:N:1)C1:N:N:N:N:1)C1:N:N:N:N:1,1
SR_cai_v1-5c_bicyclooctane_Ch_v2-6c_Ni_1_Ch_ntn_edge_1B_2Br_Ch_2x2x2,0.35797,0.60578,1.25789,1071.49,1347.82,7.42394,4.2715,71264.05965,,,,3264,,576,576,384,Br3C26H10N3Ni2O7,0.040816327,6,6c_Ni_1_Ch,"6,352",O:C(:O)C(:O):O___O:C(:O)N1:C:C2:C(:C:1)C13C4:C:C(Br):C(:C:C:4Br)C45C6:C:N(:C:C:6C6(C7:C:C(Br):C(:C:C:7Br)C78C9:C:N(:C:C:9C9(C%10:C:C(Br):C(:C:C:%10Br)C%10%11C%12:C:N(:C:C:%12C%12(C%13:C:C(Br):C(:C:C:%13Br)C2(C2:C:N(:C:C:21)C(:O):O)C1:C:N(:C:C:13)C1:C:C(Br):C(:C:C:1Br)N1:C:C2:C(:C:1)C13C%13:C:C(Br):C(:C:C:%13Br)C%13%14C%15:C:N(:C:C:%15C(C%15:C:C(Br):C(:C:C:%15Br)C%15%16C%17:C:N(:C:C:%17C(C%17:C:C(Br):C(:C:C:%17Br)C%17%18C%19:C:N(:C:C:%19C(C%19:C:C(Br):C(:C:C:%19Br)C2(C2:C:N(:C:C:21)C(:O):O)C1:C:N(:C:C:13)C(:O):O)(C1:C:N(:C:C:1%17)C(:O):O)C1:C:N(:C:C:1%18)C1:C:C(Br):C(:C:C:1Br)N1:C:C%12:C%10:C:1)C(:O):O)(C1:C:N(:C:C:1%15)C(:O):O)C1:C:N(:C:C:1%16)C1:C:C(Br):C(:C:C:1Br)N1:C:C9:C7:C:1)C(:O):O)(C1:C:N(:C:C:1%13)C(:O):O)C1:C:N(:C:C:1%14)C1:C:C(Br):C(:C:C:1Br)N1:C:C4:C6:C:1)C(:O):O)C1:C:N(:C:C:1%11)C(:O):O)C(:O):O)C1:C:N(:C:C:18)C(:O):O)C(:O):O)C1:C:N(:C:C:15)C(:O):O)C(:O):O,1
SR_cee_v1-3c_pyrrole_Ch_v2-6c_Mg_1_Ch_v3-4c_porphyrin_Ch_1B_2OH_Ch_1x1x2,0.14301,0.7995,0.43175,4468.2,1929.14,16.65402,13.74366,37107.37117,,,,816,,60,60,24,C34H20Mg1N3O10,0.014925373,6,6c_Mg_1_Ch,"252,252",O:C(:O)C1:C:C(O):C(:C:C:1O)C1:C:C:C2C3:C:C(O):C(:C:C:3O)C3:C4:C:C:C(:N:4):C4C5:C:C(O):C(:C:C:5O)N5:C(:C:C:C:5C5:C:C(O):C(:C:C:5O)C5:C6:C:C:C(:N:6):C(C6:C:C(O):C(:C:C:6O)N:1:2):C1:C:C:C(:[NH]:1):C1C2:C:C(O):C(:C:C:2O)C2:C:C:C(C6:C:C(O):C(:C:C:6O)C(:O):O):N:2C2:C:C(O):C(:C:C:2O)C(:C2:C:C:C(:N:2):C(C2:C:C(O):C(:C:C:2O)C2:C:C:C(C6:C:C(O):C(:C:C:6O)C(:O):O):N:2C2:C:C(O):C(:C:C:2O)C(:C2:C:C:C:1:N:2):C1:C:C:C:5:[NH]:1):C1:C:C:C:4:[NH]:1):C1:C:C:C:3:[NH]:1)C1:C:C(O):C(:C:C:1O)C(:O):O___O:C(:O)C1:C:C(O):C(:C:C:1O)C1:C:C:C2C3:C:C(O):C(:C:C:3O)C3:C4:C:C:C(:N:4):C4C5:C:C(O):C(:C:C:5O)N5:C(:C:C:C:5C5:C:C(O):C(:C:C:5O)C5:C6:C:C:C(:N:6):C(C6:C:C(O):C(:C:C:6O)N:1:2):C1:C:C:C(:[NH]:1):C1C2:C:C(O):C(:C:C:2O)N2:C(:C:C:C:2C2:C:C(O):C(:C:C:2O)C(:C2:C:C:C(:N:2):C(C2:C:C(O):C(:C:C:2O)N2:C(:C:C:C:2C2:C:C(O):C(:C:C:2O)C(:C2:C:C:C:1:N:2):C1:C:C:C:5:[NH]:1)C1:C:C(O):C(:C:C:1O)C(:O):O):C1:C:C:C:4:[NH]:1):C1:C:C:C:3:[NH]:1)C1:C:C(O):C(:C:C:1O)C(:O):O)C1:C:C(O):C(:C:C:1O)C(:O):O,1
SR_ceg_v1-3c_B_Ch_v2-6c_Zr_1_Ch_v3-4c_B_Ch_1B_2NO2_Ch_2x1x2,0.12871,0.78954,0.513471,3512.91,1803.78,16.17201,12.17501,74966.30932,,,,1584,,192,192,48,C84H41N18O52Zr3,0.015384615,6,6c_Zr_1_Ch,,None,1