name,k,VF,density,ASA_grav,ASA_vol,LPD,PLD,volume,,,,N_atoms,,N_metal_containing_bonds,N_metal_nonmetal_bonds,N_metal_linker_bonds,formula,metal_nonmetal_ratio,metal_node_connectivity,metal_node_name,N_atoms_per_linker,linker_SMILES,N_ccs
SR_fuj_v1-4c_In_1_Ch_v2-4c_bicyclooctane_Ch_1B_2CH3_Ch_ntn_edge_1x1x1,0.14606,0.664,0.75791,1829.63,1386.69,17.55834,7.04909,42262.03645,,,,2040,,192,192,192,C44H32In1O8,0.011904762,4,4c_In_1_Ch,"312,6",CC1:C:C2C3=CC45C=C(C(:O):O)C3C(=C4)C3:C:C(C):C(:C:C:3C)C3=CC46C=C(C(:O):O)C3C(=C4)C3:C:C(C):C(:C:C:3C)C3=CC47C=C(C(:O):O)C3C(=C4)C3:C:C(C):C(:C:C:3C)C3=CC4(C=C(C(:O):O)C3C(=C4)C3:C:C(C):C(:C:C:3C)C3=CC48C=C(C(:O):O)C3C(=C4)C3:C:C(C):C(:C:C:3C)C3=CC4(C=C(C(:O):O)C3C(=C4)C3:C:C(C):C(:C:C:3C)C3=CC4(C=C(C(:O):O)C3C(=C4)C3:C:C(C):C(:C:C:3C)C3=CC4(C=C(C(:O):O)C3C(=C4)C:1:C:C:2C)C1:C:C(C):C8:C:C:1C)C1:C:C(C):C6:C:C:1C)C1:C:C(C):C7:C:C:1C)C1:C:C(C):C5:C:C:1C___O:C(:O)C(:O):O,1
SR_koh_v1-6c_Zn_1_Ch_v2-6c_Zn_1_Ch_v3-3c_triazine_Ch_ntn_edge_2B_2CN_Ch_1x1x1,0.06565,0.8531,0.385402,3847.78,1482.94,25.30317,15.24712,106919.8917,,,,1756,,320,320,240,C240H48N66O65Zn20,0.047732697,6,6c_Zn_1_Ch,"63,6",N#CC1:C:C(:C(C#N):C:C:1C(:O):O)C1:C:C(C#N):C(:C:C:1C#N)C1:N:C(:N:C(:N:1)C1:C:C(C#N):C(:C:C:1C#N)C1:C:C(C#N):C(:C:C:1C#N)C(:O):O)C(:O):O___O:C(:O)C(:O):O,1
SR_flue_v1-6c_Cr_1_Ch_2B_1TrU_Ch_1x1x1,0.23525,0.91536,0.194024,5943.72,1153.23,42.25332,13.36295,264200.1416,,,,2816,,480,480,384,C48Cr3H24O13,0.035294118,6,6c_Cr_1_Ch,28,O:C(:O)C1:C:C:C(C#CC2:C:C:C(:C:C:2)C(:O):O):C:C:1,1
SR_fsm_v1-6c_CdZn_1_Ch_v2-4c_bicyclooctane_Ch_v3-4c_1anC_Ch_1TrU_Ch_1B_4H_Ch_1x2x2,0.17783,0.75182,0.812573,2911.62,2365.91,8.9664,5.9412,33189.20661,,,,928,,256,256,192,C33Cd3H8O13Zn1,0.074074074,6,6c_CdZn_1_Ch,53,O:C(:O)C#CC1=CC2(C=C(C#CC(:O):O)C1C(C#CC(:O):O)=C2)C1:C:C:C(:C:C:1)C(C#CC(:O):O)(C#CC(:O):O)C#CC(:O):O,1
SR_fsh_v1-4c_bicyclooctane_Ch_v2-6c_CdZn_1_Ch_1B_2F_Ch_ntn_edge_2x2x1,0.11283,0.75974,0.725637,3003.18,2179.22,11.21488,6.59552,49259.86928,,,,1284,,192,192,144,C58Cd3F12H20O13Zn1,0.038834951,6,6c_CdZn_1_Ch,102,O:C(:O)C1:C:C(F):C(:C:C:1F)C1=CC2(C=C(C3=CC4(C=C(C5:C:C(F):C(:C:C:5F)C(:O):O)C3C(=C4)C3:C:C(F):C(:C:C:3F)C(:O):O)C3:C:C(F):C(:C:C:3F)C(:O):O)C1C(=C2)C1:C:C(F):C(:C:C:1F)C(:O):O)C1:C:C(F):C(:C:C:1F)C(:O):O,1
SR_lcx_v1-8c_Co_1_Ch_1B_2thiophene_Ch_1x1x1,0.20017,0.74284,0.701047,2456.46,1722.09,18.90465,7.25485,19284.82006,,,,558,,120,120,96,C48Co4H16O17S8,0.04494382,8,8c_Co_1_Ch,22,O:C(:O)C1:C:C2:C:C3:S:C(:C:C:3:C:C:2:S:1)C(:O):O,1
SR_flue_v1-6c_Cr_1_Ch_1B_2TrU_Ch_1x1x1,0.2628,0.90904,0.2162,6196.02,1339.58,37.36582,11.7554,198703.397,,,,2048,,480,480,384,C36Cr3H12O13,0.049180328,6,6c_Cr_1_Ch,20,O:C(:O)C#CC1:C:C:C(C#CC(:O):O):C:C:1,1
SR_fla_v1-8c_Mn_1_Ch_v2-4c_1anC_Ch_1TrU_Ch_1B_4H_Ch_1x1x1,0.14999,0.75734,0.54787,3888.69,2130.49,15.55181,4.94765,24258.94905,,,,756,,80,80,64,C104Cl1H48Mn4N32,0.021621622,8,8c_Mn_1_Ch,92,C(#CC12C3:C:C:C(:C:C:3)C3(C#CC4:N:N:N:N:4)C4:C:C:C(:C:C:4)C(C#CC4:N:N:N:N:4)(C4:C:C:C1:C:C:4)C1:C:C:C(:C:C:1)C(C#CC1:N:N:N:N:1)(C1:C:C:C2:C:C:1)C1:C:C:C3:C:C:1)C1:N:N:N:N:1,1
SR_eth_v1-3c_Cu_imadazoline_Ch_v2-3c_triazine_Ch_1DoU_Ch_ntn_edge_1x1x1,0.12421,0.93864,0.194373,5536.89,1076.23,25.00267,19.49047,31029.79068,,,,248,,48,48,48,C25Cu6H16N15,0.107142857,3,3c_Cu_imadazoline_Ch,"56,14",C(=CC1:N:C(C=CC2:C:N:N:C:2):N:C(:N:1)C1:N:C(C=CC2:C:N:N:C:2):N:C(C=CC2:C:N:N:C:2):N:1)C1:C:N:N:C:1___C1:N:N:C:C:1C1:C:N:N:C:1,1
SR_fsm_v1-6c_Zn_1_Ch_v2-4c_bicyclooctane_Ch_v3-4c_bicyclooctane_Ch_ntn_edge_1B_2CN_Ch_1x2x2,0.14843,0.70908,0.704208,2917.39,2054.45,9.34665,6.22249,56552.04391,,,,1904,,256,256,192,C70H20N12O13Zn4,0.034782609,6,6c_Zn_1_Ch,114,N#CC1:C:C(C(:O):O):C(C#N):C:C:1C1=CC2(C=C(C3=CC4(C=C(C5:C:C(C#N):C(:C:C:5C#N)C(:O):O)C3C(=C4)C3:C:C(C#N):C(:C:C:3C#N)C(:O):O)C3:C:C(C#N):C(:C:C:3C#N)C(:O):O)C1C(=C2)C1:C:C(C#N):C(:C:C:1C#N)C(:O):O)C1:C:C(C#N):C(:C:C:1C#N)C(:O):O,1
SR_fsg_v1-4c_porphyrin_Ch_v2-6c_CdZn_1_Ch_ntn_edge_1TrU_Ch_1DoU_Ch_2x2x2,0.24818,0.75936,0.789216,2513.83,1983.96,9.97096,7.99192,71588.83288,,,,2080,,512,512,384,C32Cd3H12N4O13Zn1,0.06557377,6,6c_CdZn_1_Ch,"8,176",O:C(:O)C#CC(:O):O___O:C(:O)C1:C2:C:C:C(:N:2):C2C=CC3:C4:C:C:C(:N:4):C(C(:O):O):C4:C:C:C(:[NH]:4):C(C=CC4:C5:C:C:C(:N:5):C(C(:O):O):C5:C:C:C(:[NH]:5):C(C=CC5:C6:C:C:C(:N:6):C(C(:O):O):C6:C:C:C(:[NH]:6):C(C=CC(:C6:C:C:C(:N:6):C(C(:O):O):C6:C:C:C:2:[NH]:6):C2:C:C:C:1:[NH]:2):C1:C:C:C(:N:1):C(C(:O):O):C1:C:C:C:5:[NH]:1):C1:C:C:C(:N:1):C(C(:O):O):C1:C:C:C:4:[NH]:1):C1:C:C:C(:N:1):C(C(:O):O):C1:C:C:C:3:[NH]:1,1
SR_kms_v1-6c_Ni_1_Ch_v2-3c_pyrrole_Ch_v3-3c_triazine_Ch_ntn_edge_2B_1DoU_Ch_1x1x1,0.13485,0.86108,0.306359,4339.93,1329.58,29.50815,22.28801,81273.71075,,,,1248,,108,108,72,C55H33N7Ni2O7,0.019607843,6,6c_Ni_1_Ch,200,O:C(:O)C1:N:C2:N:C(:N:1)C1:C:C:C(C=CC3:C:C:C(:C:C:3)C3:C:C:C(C4:C:C:C(C=CC5:C:C:C(:C:C:5)C5:N:C(:N:C(:N:5)C5:C:C:C(C=CC6:C:C:C(:C:C:6)C6:N:C(:N:C(:N:6)C6:C:C:C(C=CC7:C:C:C(:C:C:7)C7:C:C:C(C8:C:C:C(C=CC9:C:C:C(:C:C:9)C9:N:C(:N:C(:N:9)C9:C:C:C(C=CC%10:C:C:C2:C:C:%10):C:C:9)C(:O):O):C:C:8):N:7C(:O):O):C:C:6)C(:O):O):C:C:5)C(:O):O):C:C:4):N:3C(:O):O):C:C:1,1
SR_kew_v1-6c_Cr_1_Ch_v2-6c_B_Ch_v3-3c_B_Ch_1TrU_Ch_1B_4H_Ch_2x2x2,0.95129,0.77286,0.529533,4146.28,2195.59,9.31329,7.52639,62199.28001,,,,1504,,240,240,192,C57Cr3H21O13,0.032967033,6,6c_Cr_1_Ch,180,O:C(:O)C#CC1:C:C(C#CC(:O):O):C:C(:C:1)C1:C:C:C(:C:C:1)C1:C(C2:C:C:C(:C:C:2)C2:C:C(C#CC(:O):O):C:C(C#CC(:O):O):C:2):C(C2:C:C:C(:C:C:2)C2:C:C(C#CC(:O):O):C:C(C#CC(:O):O):C:2):C(C2:C:C:C(:C:C:2)C2:C:C(C#CC(:O):O):C:C(C#CC(:O):O):C:2):C(C2:C:C:C(:C:C:2)C2:C:C(C#CC(:O):O):C:C(C#CC(:O):O):C:2):C:1C1:C:C:C(:C:C:1)C1:C:C(C#CC(:O):O):C:C(C#CC(:O):O):C:1,1
SR_flu_v1-4c_1anC_Ch_v2-8c_Co_2_Ch_1B_4CN_Ch_1x1x1,0.15741,0.62602,0.881472,0,0,11.13525,3.48579,16884.5127,,,,668,,80,80,64,C98Cl1Co4H8N56,0.024539877,8,8c_Co_2_Ch,81,N#CC1:C(C#N):C(:C(C#N):C(C#N):C:1C1C:N:N:N:1)C(C1:C(C#N):C(C#N):C(C2C:N:N:N:2):C(C#N):C:1C#N)(C1:C(C#N):C(C#N):C(C2C:N:N:N:2):C(C#N):C:1C#N)C1:C(C#N):C(C#N):C(C2C:N:N:N:2):C(C#N):C:1C#N,1
SR_kkm_v1-6c_Zn_1_Ch_v2-3c_B_Ch_1B_2Br_Ch_ntn_edge_2x2x1,0.14531,0.71776,1.03596,1948.79,2018.87,9.77342,5.54882,49628.11141,,,,1504,,512,512,384,Br3C21H6O13Zn4,0.093023256,6,6c_Zn_1_Ch,"18,16",O:C(:O)C1:C:C(:C:C(:C:1)C(:O):O)C(:O):O___O:C(:O)C1:C:C(Br):C(:C:C:1Br)C(:O):O,1
SR_hboe_v1-6c_Fe_1_Ch_v2-6c_Fe_1_Ch_ntn_edge_1B_2CH3_Ch_1x1x1,0.15578,0.71592,0.711078,1928.1,1371.03,25.6521,8.399,79359.6527,,,,2976,,720,720,576,C26Fe3H20O13,0.050847458,6,6c_Fe_1_Ch,"22,6",CC1:C:C(C(:O):O):C(C):C:C:1C(:O):O___O:C(:O)C(:O):O,1
SR_gee_v1-4c_V_1_Ch_v2-3c_pyrrole_Ch_v3-4c_V_1_Ch_ntn_edge_2B_2Br_Ch_1x1x1,0.14818,0.79452,0.712272,1973.77,1405.86,21.8978,10.82733,33798.45637,,,,690,,81,72,72,Br16C62H20N2O12V3,0.026785714,4,4c_V_1_Ch,56,O:C(:O)C1:C:C(Br):C(:C:C:1Br)C1:C:C(Br):C(:C:C:1Br)C1:C:C:C(C2:C:C(Br):C(:C:C:2Br)C2:C:C(Br):C(:C:C:2Br)C(:O):O):N:1C(:O):O,1
SR_fsa_v1-4c_bicyclooctane_Ch_v2-6c_Al_1_Ch_2B_2NH2_Ch_1x1x1,0.1055,0.86064,0.284081,5834.42,1657.45,19.17292,13.53489,56120.16446,,,,1028,,30,30,24,Al3C234H204N60O13,0.005870841,6,6c_Al_1_Ch,,None,1
SR_kag_v1-6c_CdZn_1_Ch_1B_2CF3_Ch_2x2x1,0.09361,0.76228,0.836195,2147.72,1795.91,16.4028,13.67383,72878.46616,,,,1704,,384,384,288,C30Cd3F18H6O13Zn1,0.059701493,6,6c_CdZn_1_Ch,22,O:C(:O)C1:C:C(:C(:C:C:1C(F)(F)F)C(:O):O)C(F)(F)F,1
SR_fla_v1-8c_Co_2_Ch_v2-4c_1anC_Ch_ntn_edge_1B_2furan_Ch_1x1x1,0.21358,0.62824,0.894022,0,0,12.51197,2.53097,20634.65196,,,,1012,,80,80,64,C144Cl1Co4H56N24O24,0.016064257,8,8c_Co_2_Ch,124,C1:N:N:N:C1C12C3:C:C4:C:C5:O:C(:C:C:5:C:C:4:O:3)C3(C4C:N:N:N:4)C4:C:C5:C:C6:O:C(:C:C:6:C:C:5:O:4)C(C4C:N:N:N:4)(C4:C:C5:C:C6:O:C1:C:C:6:C:C:5:O:4)C1:C:C4:C:C5:O:C(:C:C:5:C:C:4:O:1)C(C1C:N:N:N:1)(C1:C:C4:C:C5:O:C2:C:C:5:C:C:4:O:1)C1:C:C2:C:C4:O:C3:C:C:4:C:C:2:O:1,1
SR_esg_v1-3c_B_Ch_v2-6c_Zn_1_Ch_1DoU_Ch_2x3x2,0.25812,0.66086,0.952912,1783.22,1699.25,7.89558,5.16626,76215.53588,,,,3120,,768,768,576,C30H18O13Zn4,0.06557377,6,6c_Zn_1_Ch,30,O:C(:O)C=CC1:C:C(C=CC(:O):O):C:C(C=CC(:O):O):C:1,1
SR_koh_v1-6c_Zn_1_Ch_v2-6c_Zn_1_Ch_v3-3c_B_Ch_2B_2CF3_Ch_ntn_edge_1x1x1,0.05908,0.82632,0.508677,2953.71,1502.48,23.89789,14.53941,107711.6067,,,,2212,,320,320,240,C258F144H66O65Zn20,0.037523452,6,6c_Zn_1_Ch,"6,82",O:C(:O)C(:O):O___O:C(:O)C1:C:C(:C:C(:C:1)C1:C:C(:C(:C:C:1C(F)(F)F)C1:C:C(:C(:C:C:1C(F)(F)F)C(:O):O)C(F)(F)F)C(F)(F)F)C1:C:C(:C(:C:C:1C(F)(F)F)C1:C:C(:C(:C:C:1C(F)(F)F)C(:O):O)C(F)(F)F)C(F)(F)F,1
SR_flu_v1-4c_bicyclooctane_Ch_v2-8c_Mn_1_Ch_1B_2SH_Ch_1x1x1,0.15018,0.75578,0.5967,3249.76,1939.13,14.26861,6.61955,23631.99169,,,,660,,80,80,64,C72Cl1H40Mn4N32S16,0.02484472,8,8c_Mn_1_Ch,80,SC1:C:C(C2:N:N:N:N:2):C(S):C:C:1C1=CC2(C=C(C3:C:C(S):C(:C:C:3S)C3:N:N:N:N:3)C1C(=C2)C1:C:C(S):C(:C:C:1S)C1:N:N:N:N:1)C1:C:C(S):C(:C:C:1S)C1:N:N:N:N:1,1
SR_eti_v1-3c_triazine_Ch_v2-3c_Cu_imadazoline_Ch_ntn_edge_2B_fused_Ch_1x1x1,0.09931,0.95794,0.110869,6583.28,729.883,34.18819,25.06411,374938.1909,,,,2240,,192,192,192,C37Cu3H21N9,0.044776119,3,3c_Cu_imadazoline_Ch,"120,14",C1:C:C2:C:C(:C:C:C:2:C:C:1C1:C:N:N:C:1)C1:N:C(:N:C(:N:1)C1:C:C:C2:C:C(:C:C:C:2:C:1)C1:N:C(:N:C(:N:1)C1:C:C:C2:C:C(:C:C:C:2:C:1)C1:C:N:N:C:1)C1:C:C:C2:C:C(:C:C:C:2:C:1)C1:C:N:N:C:1)C1:C:C:C2:C:C(:C:C:C:2:C:1)C1:C:N:N:C:1___C1:N:N:C:C:1C1:C:N:N:C:1,1
SR_hee_v1-3c_B_Ch_v2-3c_Cu_imadazoline_Ch_1TrU_Ch_ntn_edge_1x1x1,0.11044,0.95354,0.120329,6613.77,795.83,55.65256,31.07097,210343.572,,,,1200,,144,144,144,C29Cu3H12N6,0.063829787,3,3c_Cu_imadazoline_Ch,"120,14",C(#CC1:C:C2C#CC3:C:C(C#CC4:C:N:N:C:4):C:C(C#CC4:C:C(C#CC5:C:N:N:C:5):C:C(C#CC5:C:C(C#CC6:C:N:N:C:6):C:C(C#CC6:C:C(C#CC7:C:N:N:C:7):C:C(C#CC7:C:C(C#CC8:C:N:N:C:8):C:C(C#CC(:C:1):C:2):C:7):C:6):C:5):C:4):C:3)C1:C:N:N:C:1___C1:N:N:C:C:1C1:C:N:N:C:1,1
SR_ftn_v1-4c_In_1_Ch_v2-4c_1anC_Ch_2B_2Br_Ch_1x1x1,0.02405,0.90408,0.349662,2821.52,986.579,38.9031,17.8719,118594.5422,,,,1080,,64,64,64,Br24C78H24In1O8,0.007462687,4,4c_In_1_Ch,"26,216",O:C(:O)C1:C:C(Br):C(:C:C:1Br)C1:C:C(Br):C(:C:C:1Br)C(:O):O___O:C(:O)C1:C:C(Br):C(:C:C:1Br)C1:C:C(Br):C(:C:C:1Br)C12C3:C:C(Br):C(:C:C:3Br)C3:C:C(Br):C(:C:C:3Br)C3(C4:C:C(Br):C(:C:C:4Br)C4:C:C(Br):C(:C:C:4Br)C(:O):O)C4:C:C(Br):C(:C:C:4Br)C4:C:C(Br):C(:C:C:4Br)C(C4:C:C(Br):C(:C:C:4Br)C4:C:C(Br):C(:C:C:4Br)C(:O):O)(C4:C:C(Br):C(:C:C:4Br)C4:C:C(Br):C1:C:C:4Br)C1:C:C(Br):C(:C:C:1Br)C1:C:C(Br):C(:C:C:1Br)C(C1:C:C(Br):C(:C:C:1Br)C1:C:C(Br):C(:C:C:1Br)C(:O):O)(C1:C:C(Br):C(:C:C:1Br)C1:C:C(Br):C2:C:C:1Br)C1:C:C(Br):C(:C:C:1Br)C1:C:C(Br):C3:C:C:1Br,1
SR_hyl_v1-3c_triazine_Ch_v2-6c_Al_1_Ch_v3-4c_bicyclooctane_Ch_1B_2CH3_Ch_ntn_edge_2x2x1,0.22405,0.6999,0.611131,2587.57,1581.34,16.4124,5.03553,127161.6041,,,,4704,,360,360,288,Al3C99H72N9O13,0.015544041,6,6c_Al_1_Ch,,None,1
SR_fsg_v1-4c_Ni_1_Ch_v2-6c_Ni_1_Ch_ntn_edge_1TrU_Ch_2x2x2,0.9338,0.72446,0.965984,2452.3,2368.88,7.9573,5.69514,52541.42328,,,,1472,,864,832,640,C8H1Ni3O11,0.15,"4,6","4c_Ni_1_Ch,6c_Ni_1_Ch","8,6",O:C(:O)C#CC(:O):O___O:C(:O)C(:O):O,1
SR_hbm_v1-4c_bicyclooctane_Ch_v2-4c_Ni_1_Ch_ntn_edge_1B_2CF3_Ch_2x2x2,0.20997,0.57198,1.15147,955.819,1100.6,9.81147,8.15335,62020.76255,,,,3264,,288,256,256,C26F12H8Ni1O4,0.02,4,4c_Ni_1_Ch,400,O:C(:O)C1:C:C(:C(:C:C:1C(F)(F)F)C1=CC2(C=C3C4=CC5(C=C(C6=CC7(C=C(C8=CC9(C=C(C%10=CC%11(C=C(C%12=CC%13(C=C(C%14=CC%15(C=C(C%16=CC%17(C=C(C(=C2)C31)C%16C(=C%17)C1:C:C(:C(:C:C:1C(F)(F)F)C(:O):O)C(F)(F)F)C1:C:C(:C(:C:C:1C(F)(F)F)C(:O):O)C(F)(F)F)C%14C(=C%15)C1:C:C(:C(:C:C:1C(F)(F)F)C(:O):O)C(F)(F)F)C1:C:C(:C(:C:C:1C(F)(F)F)C(:O):O)C(F)(F)F)C%12C(=C%13)C1:C:C(:C(:C:C:1C(F)(F)F)C(:O):O)C(F)(F)F)C1:C:C(:C(:C:C:1C(F)(F)F)C(:O):O)C(F)(F)F)C%10C(=C%11)C1:C:C(:C(:C:C:1C(F)(F)F)C(:O):O)C(F)(F)F)C1:C:C(:C(:C:C:1C(F)(F)F)C(:O):O)C(F)(F)F)C8C(=C9)C1:C:C(:C(:C:C:1C(F)(F)F)C(:O):O)C(F)(F)F)C1:C:C(:C(:C:C:1C(F)(F)F)C(:O):O)C(F)(F)F)C6C(=C7)C1:C:C(:C(:C:C:1C(F)(F)F)C(:O):O)C(F)(F)F)C1:C:C(:C(:C:C:1C(F)(F)F)C(:O):O)C(F)(F)F)C4C(=C5)C1:C:C(:C(:C:C:1C(F)(F)F)C(:O):O)C(F)(F)F)C1:C:C(:C(:C:C:1C(F)(F)F)C(:O):O)C(F)(F)F)C1:C:C(:C(:C:C:1C(F)(F)F)C(:O):O)C(F)(F)F)C(F)(F)F,1
SR_fsm_v1-6c_Ni_1_Ch_v2-4c_bicyclooctane_Ch_v3-4c_1anC_Ch_2B_2F_Ch_1x1x1,0.0912,0.8522,0.377064,4517.81,1703.5,17.67674,12.34447,39003.26846,,,,716,,72,72,48,C99F28H34Ni4O14,0.022857143,6,6c_Ni_1_Ch,171,O:C(:O)C1:C:C(F):C(:C:C:1F)C1:C:C(F):C(:C:C:1F)C1=CC2(C=C(C3:C:C(F):C(:C:C:3F)C3:C:C(F):C(:C:C:3F)C(:O):O)C1C(=C2)C1:C:C(F):C(:C:C:1F)C1:C:C(F):C(:C:C:1F)C(C1:C:C(F):C(:C:C:1F)C1:C:C(F):C(:C:C:1F)C(:O):O)(C1:C:C(F):C(:C:C:1F)C1:C:C(F):C(:C:C:1F)C(:O):O)C1:C:C(F):C(:C:C:1F)C1:C:C(F):C(:C:C:1F)C(:O):O)C1:C:C(F):C(:C:C:1F)C1:C:C(F):C(:C:C:1F)C(:O):O,1
SR_fsm_v1-6c_Zn_1_Ch_v2-4c_1anC_Ch_v3-4c_bicyclooctane_Ch_1B_2NH2_Ch_ntn_edge_1x2x2,0.20037,0.67888,0.79701,2415.01,1924.78,9.63068,5.12726,43026.07258,,,,1920,,256,256,192,C51H40N12O13Zn4,0.034482759,6,6c_Zn_1_Ch,115,NC1:C:C(C(:O):O):C(N):C:C:1C1=CC2(C=C(C3:C:C(N):C(:C:C:3N)C(:O):O)C1C(=C2)C(C1:C:C(N):C(:C:C:1N)C(:O):O)(C1:C:C(N):C(:C:C:1N)C(:O):O)C1:C:C(N):C(:C:C:1N)C(:O):O)C1:C:C(N):C(:C:C:1N)C(:O):O,1
SR_gaf_v1-5c_bicyclooctane_Ch_v2-4c_Ni_1_Ch_1DoU_Ch_2TrU_Ch_1TrU_Ch_1x2x2,0.62399,0.80112,0.466251,3449.17,1608.18,16.09585,12.58198,52543.35483,,,,1280,,144,128,128,C24H8N3Ni1O4,0.025641026,4,4c_Ni_1_Ch,,None,1
SR_gar_v1-4c_1anC_Ch_v2-6c_Mg_1_Ch_1B_2CN_Ch_1x1x1,0.15464,0.73126,0.594207,2987.04,1774.92,11.60843,9.05679,65051.27536,,,,1944,,480,480,192,C41H12Mg4N8O16,0.051948052,6,6c_Mg_1_Ch,61,N#CC1:C:C(:C(C#N):C:C:1C(:O):O)C(C1:C:C(C#N):C(:C:C:1C#N)C(:O):O)(C1:C:C(C#N):C(:C:C:1C#N)C(:O):O)C1:C:C(C#N):C(:C:C:1C#N)C(:O):O,1
SR_fsk_v1-6c_CdZn_1_Ch_v2-4c_bicyclooctane_Ch_v3-4c_1anC_Ch_3B_fused_8H_Ch_ntn_edge_1x2x1,0.10963,0.82906,0.425593,4513.18,1920.78,16.43805,9.43318,57828.78816,,,,1344,,128,128,96,C99Cd3H52O13Zn1,0.024390244,6,6c_CdZn_1_Ch,163,O:C(:O)C1:C:C:C2:C(:C:C:C3:C:C(:C:C:C:3:2)C2=CC3(C=C(C4:C:C:C5:C(:C:C:C6:C:C(:C:C:C:6:5)C(:O):O):C:4)C2C(=C3)C(C2:C:C:C3:C(:C:C:C4:C:C(:C:C:C:4:3)C(:O):O):C:2)(C2:C:C:C3:C(:C:C:C4:C:C(:C:C:C:4:3)C(:O):O):C:2)C2:C:C:C3:C(:C:C:C4:C:C(:C:C:C:4:3)C(:O):O):C:2)C2:C:C:C3:C(:C:C:C4:C:C(:C:C:C:4:3)C(:O):O):C:2):C:1,1
SR_frl_v1-4c_B_Ch_v2-4c_Cd_1_Ch_2B_2CN_Ch_1x1x1,0.04862,0.90114,0.227714,6061.52,1380.29,25.58568,20.22999,54695.03312,,,,600,,64,64,64,C91Cd2H21N20O16,0.013513514,4,4c_Cd_1_Ch,"30,116",N#CC1:C:C(:C(C#N):C:C:1C(:O):O)C1:C:C(C#N):C(:C:C:1C#N)C(:O):O___N#CC1:C:C(:C(C#N):C:C:1C(:O):O)C1:C:C(C#N):C(:C:C:1C#N)C1:C:C(C2:C:C(C#N):C(:C:C:2C#N)C2:C:C(C#N):C(:C:C:2C#N)C(:O):O):C(:C:C:1C1:C:C(C#N):C(:C:C:1C#N)C1:C:C(C#N):C(:C:C:1C#N)C(:O):O)C1:C:C(C#N):C(:C:C:1C#N)C1:C:C(C#N):C(:C:C:1C#N)C(:O):O,1
SR_flue_v1-6c_Fe_1_Ch_2B_2CN_Ch_1x1x1,0.18754,0.84556,0.353754,4349.71,1538.72,32.57964,9.11519,180897.3131,,,,3008,,480,480,384,C54Fe3H12N12O13,0.032967033,6,6c_Fe_1_Ch,30,N#CC1:C:C(:C(C#N):C:C:1C(:O):O)C1:C:C(C#N):C(:C:C:1C#N)C(:O):O,1
SR_flu_v1-4c_1anC_Ch_v2-8c_Co_2_Ch_1B_2TrU_Ch_1x1x1,0.11417,0.8947,0.235501,6745.39,1588.55,24.51068,10.77003,51465.89622,,,,668,,80,80,64,C98Cl1Co4H40N24,0.024539877,8,8c_Co_2_Ch,81,C(#CC1:C:C:C(C#CC(C#CC2:C:C:C(C#CC3C:N:N:N:3):C:C:2)(C#CC2:C:C:C(C#CC3C:N:N:N:3):C:C:2)C#CC2:C:C:C(C#CC3C:N:N:N:3):C:C:2):C:C:1)C1C:N:N:N:1,1
SR_ict_v1-4c_In_1_Ch_2B_1TrU_Ch_1x1x1,0.0789,0.93108,0.165083,7060.51,1165.57,30.26263,24.52375,275234.0726,,,,2052,,288,288,288,C32H16In1O8,0.017857143,4,4c_In_1_Ch,28,O:C(:O)C1:C:C:C(C#CC2:C:C:C(:C:C:2)C(:O):O):C:C:1,1
SR_kez_v1-6c_Al_1_Ch_v2-3c_triazine_Ch_v3-6c_B_Ch_ntn_edge_2B_2F_Ch_2x2x1,0.41677,0.74054,0.639268,3357.52,2146.35,12.30647,6.44331,94591.66049,,,,2608,,240,240,192,Al3C90F24H24N9O13,0.01875,6,6c_Al_1_Ch,318,O:C(:O)C1:C:C(F):C(:C:C:1F)C1:C:C(F):C(:C:C:1F)C1:N:C(:N:C(:N:1)C1:C(C2:N:C(:N:C(:N:2)C2:C:C(F):C(:C:C:2F)C2:C:C(F):C(:C:C:2F)C(:O):O)C2:C:C(F):C(:C:C:2F)C2:C:C(F):C(:C:C:2F)C(:O):O):C(C2:N:C(:N:C(:N:2)C2:C:C(F):C(:C:C:2F)C2:C:C(F):C(:C:C:2F)C(:O):O)C2:C:C(F):C(:C:C:2F)C2:C:C(F):C(:C:C:2F)C(:O):O):C(C2:N:C(:N:C(:N:2)C2:C:C(F):C(:C:C:2F)C2:C:C(F):C(:C:C:2F)C(:O):O)C2:C:C(F):C(:C:C:2F)C2:C:C(F):C(:C:C:2F)C(:O):O):C(C2:N:C(:N:C(:N:2)C2:C:C(F):C(:C:C:2F)C2:C:C(F):C(:C:C:2F)C(:O):O)C2:C:C(F):C(:C:C:2F)C2:C:C(F):C(:C:C:2F)C(:O):O):C:1C1:N:C(:N:C(:N:1)C1:C:C(F):C(:C:C:1F)C1:C:C(F):C(:C:C:1F)C(:O):O)C1:C:C(F):C(:C:C:1F)C1:C:C(F):C(:C:C:1F)C(:O):O)C1:C:C(F):C(:C:C:1F)C1:C:C(F):C(:C:C:1F)C(:O):O,1
SR_etq_v1-3c_Cu_imadazoline_Ch_v2-3c_Cu_imadazoline_Ch_2B_fused_Ch_ntn_edge_1x1x1,0.12939,0.94806,0.159538,5928.95,945.895,29.09506,20.40184,161029.5237,,,,1152,,192,192,192,C11Cu2H7N4,0.090909091,3,3c_Cu_imadazoline_Ch,"30,14",C1:C:C2:C:C(:C:C:C:2:C:C:1C1:C:N:N:C:1)C1:C:N:N:C:1___C1:N:N:C:C:1C1:C:N:N:C:1,1
SR_iab_v1-3c_B_Ch_v2-4c_V_1_Ch_v3-4c_V_1_Ch_2B_2NO2_Ch_1x1x1,0.14205,0.88856,0.271482,5479.74,1487.65,21.80687,15.22474,125275.504,,,,1656,,108,96,96,C30H10N8O20V1,0.014705882,4,4c_V_1_Ch,102,O:C(:O)C1:C:C(:C(:C:C:1N(:O):O)C1:C:C(:C(:C:C:1N(:O):O)C1:C:C(:C:C(:C:1)C1:C:C(:C(:C:C:1N(:O):O)C1:C:C(:C(:C:C:1N(:O):O)C(:O):O)N(:O):O)N(:O):O)C1:C:C(:C(:C:C:1N(:O):O)C1:C:C(:C(:C:C:1N(:O):O)C(:O):O)N(:O):O)N(:O):O)N(:O):O)N(:O):O,1
SR_frf_v1-3c_Cu_imadazoline_Ch_v2-4c_pyrene_Ch_v3-4c_porphyrin_Ch_v4-4c_B_Ch_ntn_edge_1DoU_Ch_1x1x1,0.19416,0.81512,0.497141,2638.08,1311.5,21.82028,19.63146,34989.45221,,,,872,,96,96,96,C56Cu6H31N16,0.058252427,3,3c_Cu_imadazoline_Ch,"156,50",C(=CC1:C2:C:C:C(:N:2):C2C3:C:C(C4:C:N:N:C:4):C(:C:C:3C3:C:N:N:C:3)C3:C4:C:C:C(:N:4):C(C=CC4:C:N:N:C:4):C4:C:C:C(:[NH]:4):C(C=CC4:C:N:N:C:4):C4:C:C:C(:N:4):C(C4:C:C(C5:C:N:N:C:5):C(:C:C:4C4:C:N:N:C:4)C(:C4:C:C:C(:N:4):C(C=CC4:C:N:N:C:4):C4:C:C:C:1:[NH]:4):C1:C:C:C:2:[NH]:1):C1:C:C:C:3:[NH]:1)C1:C:N:N:C:1___C1:N:N:C:C:1C1:C:C(C2:C:N:N:C:2):C2:C:C:C3:C(:C:C(C4:C:N:N:C:4):C4:C:C:C:1:C:2:C:4:3)C1:C:N:N:C:1,1
SR_jcy_v1-3c_pyrrole_Ch_v2-3c_Cu_imadazoline_Ch_v3-4c_bicyclooctane_Ch_1B_2CF3_Ch_ntn_edge_2x2x2,0.30873,0.39026,1.58921,0,0,6.12478,1.58968,54004.27718,,,,3600,,96,96,96,C39Cu1F18H14N3,0.013513514,3,3c_Cu_imadazoline_Ch,,None,1
SR_ilc_v1-8c_Mn_1_Ch_1B_2OH_Ch_2x2x1,0.2991,0.5489,1.18491,0,0,5.45587,2.84188,46320.85797,,,,2232,,480,480,384,C32Cl1H16Mn4N32O8,0.04494382,8,8c_Mn_1_Ch,22,OC1:C:C(C2:N:N:N:N:2):C(O):C:C:1C1:N:N:N:N:1,1
SR_kle_v1-3c_triazine_Ch_v2-12c_Zr_1_Ch_v3-3c_triazine_Ch_ntn_edge_2B_fused_Ch_1x1x1,0.24274,0.53338,1.3217,378.321,500.027,6.17181,3.68669,20652.58741,,,,1104,,384,384,192,C30H11N9O16Zr3,0.045454545,12,12c_Zr_1_Ch,40,O:C(:O)C1:N:C(:N:C(:N:1)C1:C:C:C2:C:C(:C:C:C:2:C:1)C1:N:C(:N:C(:N:1)C(:O):O)C(:O):O)C(:O):O,1
SR_knc_v1-4c_porphyrin_Ch_v2-8c_Mn_1_Ch_v3-8c_Mn_1_Ch_1DoU_Ch_1TrU_Ch_2x2x1,0.38808,0.7518,0.59036,3809.59,2249.03,11.04342,8.09435,72567.1359,,,,2192,,320,320,256,C64Cl1H28Mn4N40,0.030075188,8,8c_Mn_1_Ch,"66,66",C(#CC1:C2:C:C:C(:N:2):C(C#CC2:N:N:N:N:2):C2:C:C:C(:[NH]:2):C(C=CC2:N:N:N:N:2):C2:C:C:C(:N:2):C(C=CC2:N:N:N:N:2):C2:C:C:C:1:[NH]:2)C1:N:N:N:N:1___C(#CC1:C2:C:C:C(:N:2):C(C=CC2:N:N:N:N:2):C2:C:C:C(:[NH]:2):C(C=CC2:N:N:N:N:2):C2:C:C:C(:N:2):C(C#CC2:N:N:N:N:2):C2:C:C:C:1:[NH]:2)C1:N:N:N:N:1,1
SR_fsi_v1-4c_bicyclooctane_Ch_v2-4c_bicyclooctane_Ch_v3-6c_Al_1_Ch_1B_4H_Ch_1DoU_Ch_1x2x2,0.21347,0.7582,0.541793,3415.32,1850.4,12.55084,9.98717,75323.11202,,,,2432,,480,480,384,Al3C38H22O13,0.04109589,6,6c_Al_1_Ch,"64,40",O:C(:O)C1:C:C:C(:C:C:1)C1=CC2(C=C(C3:C:C:C(:C:C:3)C(:O):O)C1C(=C2)C1:C:C:C(:C:C:1)C(:O):O)C1:C:C:C(:C:C:1)C(:O):O___O:C(:O)C=CC1=CC2(C=CC(:O):O)C=C(C=CC(:O):O)C1C(C=CC(:O):O)=C2,1
SR_jea_v1-4c_In_1_Ch_v2-3c_triazine_Ch_1B_2F_Ch_ntn_edge_1x3x2,0.29794,0.78494,0.687146,3174.46,2181.32,10.25255,7.72293,24647.97716,,,,576,,192,192,192,C10F1H1In1N3O8,0.043478261,4,4c_In_1_Ch,"16,15",O:C(:O)C1:C:C(F):C(:C:C:1F)C(:O):O___O:C(:O)C1:N:C(:N:C(:N:1)C(:O):O)C(:O):O,1
SR_ibe_v1-6c_Ni_1_Ch_v2-3c_B_Ch_1B_2SH_Ch_ntn_edge_1x1x1,0.14957,0.71472,0.714827,3039.32,2172.59,10.56975,5.66712,59541.60944,,,,2000,,288,288,192,C60H35Ni4O14S12,0.033057851,6,6c_Ni_1_Ch,78,O:C(:O)C1:C:C(S):C(:C:C:1S)C1:C:C(:C:C(:C:1)C1:C:C(S):C(:C:C:1S)C(:O):O)C1:C:C(:C:C(:C:1)C1:C:C(S):C(:C:C:1S)C(:O):O)C1:C:C(S):C(:C:C:1S)C(:O):O,1