name,k,VF,density,ASA_grav,ASA_vol,LPD,PLD,volume,,,,N_atoms,,N_metal_containing_bonds,N_metal_nonmetal_bonds,N_metal_linker_bonds,formula,metal_nonmetal_ratio,metal_node_connectivity,metal_node_name,N_atoms_per_linker,linker_SMILES,N_ccs
SR_ceu_v1-4c_B_Ch_v2-6c_Ni_1_Ch_v3-4c_porphyrin_Ch_ntn_edge_2B_4F_Ch_2x2x1,0.35802,0.4641,1.44355,0,0,9.40877,2.34001,66065.46185,,,,3536,,288,288,192,C126F48H23N6Ni4O14,0.01843318,6,6c_Ni_1_Ch,426,O:C(:O)C1:C:C2:C(:C:C:1C(:O):O)C1:C(F):C(F):C(:C(F):C:1F)C1:C(F):C(F):C(:C(F):C:1F)C1:C3:C:C:C(:N:3):C3C4:C(F):C(F):C(:C(F):C:4F)C4:C(F):C(F):C(C5:C:C(C(:O):O):C(:C:C:5C5:C(F):C(F):C(:C(F):C:5F)C5:C(F):C(F):C(:C(F):C:5F)C5:C6:C:C:C(:N:6):C(C6:C(F):C(F):C(:C(F):C:6F)C6:C(F):C(F):C2:C(F):C:6F):C2:C:C:C(:[NH]:2):C2C6:C(F):C(F):C(:C(F):C:6F)C6:C(F):C(F):C(C7:C:C(C(:O):O):C(:C:C:7C7:C(F):C(F):C(:C(F):C:7F)C7:C(F):C(F):C(:C(F):C:7F)C7:C8:C:C:C(:N:8):C(C8:C(F):C(F):C(:C(F):C:8F)C8:C(F):C(F):C(C9:C:C(C(:O):O):C(:C:C:9C9:C(F):C(F):C(:C(F):C:9F)C9:C(F):C(F):C(:C(F):C:9F)C(:C9:C:C:C:2:N:9):C2:C:C:C:5:[NH]:2)C(:O):O):C(F):C:8F):C2:C:C:C(:[NH]:2):C2C5:C(F):C(F):C(:C(F):C:5F)C5:C(F):C(F):C(C8:C:C(C(:O):O):C(:C:C:8C8:C(F):C(F):C(:C(F):C:8F)C8:C(F):C(F):C(:C(F):C:8F)C(:C8:C:C:C(:N:8):C(C8:C(F):C(F):C(:C(F):C:8F)C8:C(F):C(F):C(C9:C:C(C(:O):O):C(:C:C:9C9:C(F):C(F):C(:C(F):C:9F)C9:C(F):C(F):C(:C(F):C:9F)C(:C9:C:C:C:2:N:9):C2:C:C:C:7:[NH]:2)C(:O):O):C(F):C:8F):C2:C:C:C:1:[NH]:2):C1:C:C:C:3:[NH]:1)C(:O):O):C(F):C:5F)C(:O):O):C(F):C:6F)C(:O):O):C(F):C:4F,1
SR_cbo_v1-4c_Cd_1_Ch_1B_2Br_Ch_1x1x1,0.03675,0.87212,0.469279,3387.58,1589.72,20.63907,13.01085,64223.29505,,,,792,,192,192,192,Br4C16Cd1H4O8,0.03125,4,4c_Cd_1_Ch,16,O:C(:O)C1:C:C(Br):C(:C:C:1Br)C(:O):O,1
SR_cdj_v1-3c_triazine_Ch_v2-6c_Zr_1_Ch_1B_2SH_Ch_ntn_edge_1x1x1,0.14515,0.6619,1.01287,1636.68,1657.75,11.7816,6.09004,20980.11453,,,,816,,384,384,96,C24H28N9O32S3Zr6,0.0625,6,6c_Zr_1_Ch,36,O:C(:O)C1:N:C(:N:C(:N:1)C1:C:C(S):C(:C:C:1S)C1:N:C(:N:C(:N:1)C(:O):O)C(:O):O)C(:O):O,1
SR_cut_v1-8c_Co_1_Ch_v2-3c_pyrrole_Ch_1DoU_Ch_1TrU_Ch_2x2x3,0.18279,0.75526,0.635815,2537.33,1613.27,13.88165,11.84709,38420.28263,,,,972,,240,240,192,C44Co4H12N4O17,0.051948052,8,8c_Co_1_Ch,38,O:C(:O)C#CC1:C:C:C(C=CC2:C:C:C(C#CC(:O):O):N:2C#CC(:O):O):N:1C#CC(:O):O,1
SR_cdp_v1-4c_1anC_Ch_v2-4c_In_1_Ch_2B_2CF3_Ch_1x1x1,0.03808,0.85134,0.423338,3626.02,1535.03,19.6545,16.17458,49270.95355,,,,876,,64,64,64,C105F72H24In2O16,0.00921659,4,4c_In_1_Ch,"38,141",O:C(:O)C1:C:C(:C(:C:C:1C(F)(F)F)C1:C:C(:C(:C:C:1C(F)(F)F)C(:O):O)C(F)(F)F)C(F)(F)F___O:C(:O)C1:C:C(:C(:C:C:1C(F)(F)F)C1:C:C(:C(:C:C:1C(F)(F)F)C(C1:C:C(:C(:C:C:1C(F)(F)F)C1:C:C(:C(:C:C:1C(F)(F)F)C(:O):O)C(F)(F)F)C(F)(F)F)(C1:C:C(:C(:C:C:1C(F)(F)F)C1:C:C(:C(:C:C:1C(F)(F)F)C(:O):O)C(F)(F)F)C(F)(F)F)C1:C:C(:C(:C:C:1C(F)(F)F)C1:C:C(:C(:C:C:1C(F)(F)F)C(:O):O)C(F)(F)F)C(F)(F)F)C(F)(F)F)C(F)(F)F,1
SR_cml_v1-3c_B_Ch_v2-6c_Cr_1_Ch_ntn_edge_2x2x2,2.1797,0.6116,1.12037,1408.64,1578.2,7.13108,5.43652,27816.3342,,,,1280,,480,480,384,C18Cr3H6O13,0.081081081,6,6c_Cr_1_Ch,18,O:C(:O)C1:C:C(:C:C(:C:1)C(:O):O)C(:O):O,1
SR_buh_v1-4c_bicyclooctane_Ch_v2-12c_Eu_1_Ch_v3-12c_Eu_1_Ch_2TrU_Ch_1x1x1,0.13184,0.78938,0.643366,3517.37,2262.96,14.47084,7.76856,50577.63548,,,,1104,,384,384,192,C42Eu3H8O16,0.045454545,12,12c_Eu_1_Ch,40,O:C(:O)C#CC#CC1=CC2(C#CC#CC(:O):O)C=C(C#CC#CC(:O):O)C1C(C#CC#CC(:O):O)=C2,1
SR_ceu_v1-4c_B_Ch_v2-6c_Zn_1_Ch_v3-4c_porphyrin_Ch_1B_4CN_Ch_2x2x1,0.14826,0.69456,0.699471,2731.99,1910.95,11.4183,6.93222,147168.2832,,,,4256,,256,256,192,C174H21N54O13Zn4,0.015267176,6,6c_Zn_1_Ch,,None,1
SR_cut_v1-8c_Co_2_Ch_v2-3c_triazine_Ch_2B_4Br_Ch_ntn_edge_2x2x3,0.5649,0.7994,0.718278,2555.9,1835.84,16.89167,15.53859,74533.4187,,,,1404,,240,240,192,Br16C52Cl1Co4H8N36,0.03539823,8,8c_Co_2_Ch,56,BrC1:C(Br):C(:C(Br):C(Br):C:1C1:N:C(:N:C(:N:1)C1C:N:N:N:1)C1C:N:N:N:1)C1:C(Br):C(Br):C(C2:N:C(:N:C(:N:2)C2C:N:N:N:2)C2C:N:N:N:2):C(Br):C:1Br,1
SR_cli_v1-4c_In_1_Ch_v2-4c_bicyclooctane_Ch_v3-4c_bicyclooctane_Ch_v4-4c_In_1_Ch_7_edges_2x2x1,0.38227,0.56388,1.21753,919.782,1119.86,7.10024,5.33467,42866.27698,,,,2368,,512,512,512,C20H8In1O8,0.027777778,4,4c_In_1_Ch,"6,240",O:C(:O)C(:O):O___O:C(:O)C12C=C3C4=CC5(C=C6C7=CC8(C=C9C%10=CC%11(C=C%12C(=C1)C3C(=C2)C1=CC2(C=C3C%13=CC%14(C=C(C(=C5)C46)C%13C(=C%14)C4=CC5(C=C6C%13=CC%14(C=C(C(=C2)C13)C%13C(=C%14)C1=CC2(C=C3C%13=CC%14(C=C(C(=C5)C46)C%13C(=C%14)C4=CC5(C=C6C%13=CC%14(C=C%15C%16=CC%17(C=C(C(=C8)C79)C%16C(=C%17)C7=CC8(C=C(C(=C%11)C%12%10)C7C(=C8)C7=CC8(C=C(C(=C%14)C%15%13)C7C(=C8)C7=CC8(C=C(C(=C2)C13)C7C(=C8)C(=C5)C64)C(:O):O)C(:O):O)C(:O):O)C(:O):O)C(:O):O)C(:O):O)C(:O):O)C(:O):O)C(:O):O)C(:O):O)C(:O):O)C(:O):O)C(:O):O)C(:O):O)C(:O):O,1
SR_cdl_v1-4c_Cu_1_Ch_1B_2thiophene_Ch_1x1x1,0.24338,0.88018,0.33278,5228.11,1739.81,16.06106,11.51418,54265.25849,,,,736,,144,128,128,C12Cu1H4O4S2,0.045454545,4,4c_Cu_1_Ch,22,O:C(:O)C1:C:C2:C:C3:S:C(:C:C:3:C:C:2:S:1)C(:O):O,1
SR_ceh_v1-3c_triazine_Ch_v2-6c_Mg_1_Ch_v3-4c_1anC_Ch_4B_fused_8H_Ch_1x1x2,0.28082,0.70226,0.619795,2881.77,1786.1,11.87323,8.87196,29711.36357,,,,1038,,60,60,24,C107H50Mg2N6O8,0.011695906,6,6c_Mg_1_Ch,,None,1
SR_cez_v1-4c_ethene_Ch_v2-6c_B_Ch_v3-3c_Cu_imadazoline_Ch_1B_4CN_Ch_1x1x1,0.20981,0.6824,0.798226,2347.74,1874.03,8.34225,5.5334,26949.56078,,,,816,,72,72,72,C41Cu3H6N18,0.046153846,3,3c_Cu_imadazoline_Ch,"132,86",N#CC1:C(C#N):C(:C(C#N):C(C#N):C:1C1:C:N:N:C:1)C1:C(C2:C(C#N):C(C#N):C(C3:C:N:N:C:3):C(C#N):C:2C#N):C(C2:C(C#N):C(C#N):C(C3:C:N:N:C:3):C(C#N):C:2C#N):C(C2:C(C#N):C(C#N):C(C3:C:N:N:C:3):C(C#N):C:2C#N):C(C2:C(C#N):C(C#N):C(C3:C:N:N:C:3):C(C#N):C:2C#N):C:1C1:C(C#N):C(C#N):C(C2:C:N:N:C:2):C(C#N):C:1C#N___N#CC1:C(C#N):C(C2:C:N:N:C:2):C(C#N):C(C#N):C:1C(=C(C1:C(C#N):C(C#N):C(C2:C:N:N:C:2):C(C#N):C:1C#N)C1:C(C#N):C(C#N):C(C2:C:N:N:C:2):C(C#N):C:1C#N)C1:C(C#N):C(C#N):C(C2:C:N:N:C:2):C(C#N):C:1C#N,1
SR_cer_v1-3c_B_Ch_v2-6c_bicyclooctane_Ch_v3-6c_CdZn_1_Ch_1B_2OH_Ch_2x2x1,0.12864,0.7719,0.598371,3694.81,2210.87,11.79674,7.01909,99103.68871,,,,2608,,256,256,192,C82Cd3H46O31Zn1,0.025157233,6,6c_CdZn_1_Ch,316,O:C(:O)C1:C:C(O):C(:C:C:1O)C1:C:C(:C:C(:C:1)C1:C:C(O):C(:C:C:1O)C(:O):O)C1:C:C(O):C(:C:C:1O)C1=C(C2:C:C(O):C(:C:C:2O)C2:C:C(:C:C(:C:2)C2:C:C(O):C(:C:C:2O)C(:O):O)C2:C:C(O):C(:C:C:2O)C(:O):O)C2C(=C(C3:C:C(O):C(:C:C:3O)C3:C:C(:C:C(:C:3)C3:C:C(O):C(:C:C:3O)C(:O):O)C3:C:C(O):C(:C:C:3O)C(:O):O)C1C(=C2C1:C:C(O):C(:C:C:1O)C1:C:C(:C:C(:C:1)C1:C:C(O):C(:C:C:1O)C(:O):O)C1:C:C(O):C(:C:C:1O)C(:O):O)C1:C:C(O):C(:C:C:1O)C1:C:C(:C:C(:C:1)C1:C:C(O):C(:C:C:1O)C(:O):O)C1:C:C(O):C(:C:C:1O)C(:O):O)C1:C:C(O):C(:C:C:1O)C1:C:C(:C:C(:C:1)C1:C:C(O):C(:C:C:1O)C(:O):O)C1:C:C(O):C(:C:C:1O)C(:O):O,1
SR_cai_v1-5c_bicyclooctane_Ch_v2-6c_Ni_1_Ch_2B_2SH_Ch_ntn_edge_1x1x3,0.35077,0.5971,1.00235,1250.65,1253.59,11.75075,9.81325,41756.03463,,,,2016,,216,216,144,C41H23N3Ni2O7S8,0.024390244,6,6c_Ni_1_Ch,,None,1
SR_brl_v1-4c_V_1_Ch_v2-4c_1anC_Ch_ntn_edge_1B_2Br_Ch_2x2x2,0.34631,0.35806,2.34549,0,0,4.54935,2.8506,24489.39892,,,,1344,,216,192,192,Br4C15H4O4V1,0.037037037,4,4c_V_1_Ch,162,O:C(:O)C1:C:C(Br):C(:C:C:1Br)C1(C2:C:C(Br):C(:C:C:2Br)C(:O):O)C(C2:C:C(Br):C(:C:C:2Br)C(:O):O)(C2:C:C(Br):C(:C:C:2Br)C(:O):O)C(C2:C:C(Br):C(:C:C:2Br)C(:O):O)(C2:C:C(Br):C(:C:C:2Br)C(:O):O)C(C2:C:C(Br):C(:C:C:2Br)C(:O):O)(C2:C:C(Br):C(:C:C:2Br)C(:O):O)C(C2:C:C(Br):C(:C:C:2Br)C(:O):O)(C2:C:C(Br):C(:C:C:2Br)C(:O):O)C1(C1:C:C(Br):C(:C:C:1Br)C(:O):O)C1:C:C(Br):C(:C:C:1Br)C(:O):O,1
SR_cen_v1-12c_Zr_1_Ch_v2-4c_1anC_Ch_1DoU_Ch_1TrU_Ch_2x2x2,0.57641,0.396,1.74447,0,0,3.88067,2.25654,14528.62887,,,,880,,384,384,192,C22H14O16Zr3,0.057692308,12,12c_Zr_1_Ch,46,O:C(:O)C=CC(C#CC(C=CC(:O):O)(C=CC(:O):O)C=CC(:O):O)(C=CC(:O):O)C=CC(:O):O,1
SR_cdle_v1-4c_V_1_Ch_v2-4c_bicyclooctane_Ch_v3-4c_V_1_Ch_1B_2OH_Ch_2x2x1,0.19239,0.81526,0.467389,4324.35,2021.15,12.27393,10.02954,51136.3647,,,,1200,,216,192,192,C34H18O20V3,0.041666667,4,4c_V_1_Ch,"18,72",O:C(:O)C1:C:C(O):C(:C:C:1O)C(:O):O___O:C(:O)C1:C:C(O):C(:C:C:1O)C1=CC2(C=C(C3:C:C(O):C(:C:C:3O)C(:O):O)C1C(=C2)C1:C:C(O):C(:C:C:1O)C(:O):O)C1:C:C(O):C(:C:C:1O)C(:O):O,1
SR_ceu_v1-4c_B_Ch_v2-6c_Ni_1_Ch_v3-4c_porphyrin_Ch_1B_2SH_Ch_2x2x1,0.15524,0.73318,0.629806,3189.52,2008.78,12.51618,7.86034,140670.0668,,,,3920,,288,288,192,C126H71N6Ni4O14S24,0.01659751,6,6c_Ni_1_Ch,474,O:C(:O)C1:C:C(S):C(:C:C:1S)C1:C:C2C3:C:C(S):C(:C:C:3S)C3:C4:C:C:C(:N:4):C4C5:C:C(S):C(:C:C:5S)C5:C:C(C6:C:C(S):C(:C:C:6S)C(:O):O):C(:C:C:5C5:C:C(S):C(:C:C:5S)C5:C6:C:C:C(:N:6):C(C6:C:C(S):C(:C:C:6S)C:2:C:C:1C1:C:C(S):C(:C:C:1S)C(:O):O):C1:C:C:C(:[NH]:1):C1C2:C:C(S):C(:C:C:2S)C2:C:C(C6:C:C(S):C(:C:C:6S)C(:O):O):C(:C:C:2C2:C:C(S):C(:C:C:2S)C2:C6:C:C:C(:N:6):C(C6:C:C(S):C(:C:C:6S)C6:C:C(C7:C:C(S):C(:C:C:7S)C(:O):O):C(:C:C:6C6:C:C(S):C(:C:C:6S)C(:C6:C:C:C:1:N:6):C1:C:C:C:5:[NH]:1)C1:C:C(S):C(:C:C:1S)C(:O):O):C1:C:C:C(:[NH]:1):C1C5:C:C(S):C(:C:C:5S)C5:C:C(C6:C:C(S):C(:C:C:6S)C(:O):O):C(:C:C:5C5:C:C(S):C(:C:C:5S)C(:C5:C:C:C(:N:5):C(C5:C:C(S):C(:C:C:5S)C5:C:C(C6:C:C(S):C(:C:C:6S)C(:O):O):C(:C:C:5C5:C:C(S):C(:C:C:5S)C(:C5:C:C:C:1:N:5):C1:C:C:C:2:[NH]:1)C1:C:C(S):C(:C:C:1S)C(:O):O):C1:C:C:C:3:[NH]:1):C1:C:C:C:4:[NH]:1)C1:C:C(S):C(:C:C:1S)C(:O):O)C1:C:C(S):C(:C:C:1S)C(:O):O)C1:C:C(S):C(:C:C:1S)C(:O):O,1
SR_ced_v1-3c_B_Ch_v2-12c_Mn_1_Ch_2B_2NO2_Ch_2x2x1,0.12566,0.75884,0.59389,3293.34,1955.88,14.46001,7.89787,83246.22922,,,,2084,,168,168,72,C228H78Mn8N60O147,0.015594542,12,12c_Mn_1_Ch,"170,170",OC(:O)C1:C:C(:C(:C:C:1N(:O):O)C1:C:C(:C(:C:C:1N(:O):O)C1:C:C(:C:C(:C:1)C1:C:C(:C(:C:C:1N(:O):O)C1:C:C(:C(:C:C:1N(:O):O)C1:C:C(:C:C(:C:1)C1:C:C(:C(:C:C:1N(:O):O)C1:C:C(:C(:C:C:1N(:O):O)C(:O):O)N(:O):O)N(:O):O)C1:C:C(:C(:C:C:1N(:O):O)C1:C:C(:C(:C:C:1N(:O):O)C(:O):O)N(:O):O)N(:O):O)N(:O):O)N(:O):O)C1:C:C(:C(:C:C:1N(:O):O)C1:C:C(:C(:C:C:1N(:O):O)C(:O):O)N(:O):O)N(:O):O)N(:O):O)N(:O):O___OC(:O)C1:C:C(:C(:C:C:1N(:O):O)C1:C:C(:C(:C:C:1N(:O):O)C1:C:C(:C:C(:C:1)C1:C:C(:C(:C:C:1N(:O):O)C1:C:C(:C(:C:C:1N(:O):O)C1:C:C(:C:C(:C:1)C1:C:C(:C(:C:C:1N(:O):O)C1:C:C(:C(:C:C:1N(:O):O)C(:O):O)N(:O):O)N(:O):O)C1:C:C(:C(:C:C:1N(:O):O)C1:C:C(:C(:C:C:1N(:O):O)C(O):O)N(:O):O)N(:O):O)N(:O):O)N(:O):O)C1:C:C(:C(:C:C:1N(:O):O)C1:C:C(:C(:C:C:1N(:O):O)C(:O):O)N(:O):O)N(:O):O)N(:O):O)N(:O):O,1
SR_cdj_v1-3c_B_Ch_v2-6c_Zr_1_Ch_1B_2F_Ch_1x1x1,0.07474,0.83994,0.436805,3768.38,1646.05,18.56321,12.05544,67507.32285,,,,1344,,384,384,96,C69F15H46O32Zr6,0.037037037,6,6c_Zr_1_Ch,80,O:C(:O)C1:C:C(F):C(:C:C:1F)C1:C:C(:C:C(:C:1)C1:C:C(F):C(:C:C:1F)C1:C:C(:C:C(:C:1)C1:C:C(F):C(:C:C:1F)C(:O):O)C1:C:C(F):C(:C:C:1F)C(:O):O)C1:C:C(F):C(:C:C:1F)C(:O):O,1
SR_dma_v1-3c_Cu_imadazoline_Ch_v2-3c_pyrrole_Ch_2B_4CN_Ch_1x1x1,0.04531,0.93318,0.158626,5706.69,905.229,26.56406,22.75998,142128.4086,,,,920,,48,48,48,C73Cu3H8N31,0.026785714,3,3c_Cu_imadazoline_Ch,"280,42",N#CC1:C(C#N):C(:C(C#N):C(C#N):C:1C1:C:N:N:C:1)C1:C(C#N):C(C#N):C(:C(C#N):C:1C#N)C1:C:C:C2C3:C(C#N):C(C#N):C(:C(C#N):C:3C#N)C3:C(C#N):C(C#N):C(:C(C#N):C:3C#N)C3:C:C:C(C4:C(C#N):C(C#N):C(:C(C#N):C:4C#N)C4:C(C#N):C(C#N):C(C5:C:N:N:C:5):C(C#N):C:4C#N):N:3C3:C(C#N):C(C#N):C(:C(C#N):C:3C#N)C3:C(C#N):C(C#N):C(:C(C#N):C:3C#N)N3:C(:C:C:C:3C3:C(C#N):C(C#N):C(:C(C#N):C:3C#N)C3:C(C#N):C(C#N):C(:C(C#N):C:3C#N)C3:C:C:C(C4:C(C#N):C(C#N):C(:C(C#N):C:4C#N)C4:C(C#N):C(C#N):C(C5:C:N:N:C:5):C(C#N):C:4C#N):N:3C3:C(C#N):C(C#N):C(:C(C#N):C:3C#N)C3:C(C#N):C(C#N):C(:C(C#N):C:3C#N)N:1:2)C1:C(C#N):C(C#N):C(:C(C#N):C:1C#N)C1:C(C#N):C(C#N):C(C2:C:N:N:C:2):C(C#N):C:1C#N___N#CC1:C(C#N):C(:C(C#N):C(C#N):C:1C1:C:N:N:C:1)C1:C(C#N):C(C#N):C(C2:C:N:N:C:2):C(C#N):C:1C#N,1
SR_cml_v1-3c_B_Ch_v2-6c_Fe_1_Ch_ntn_edge_2x2x2,1.79617,0.63306,1.04471,1686.63,1762.04,7.45811,5.76678,30409.86654,,,,1280,,480,480,384,C18Fe3H6O13,0.081081081,6,6c_Fe_1_Ch,18,O:C(:O)C1:C:C(:C:C(:C:1)C(:O):O)C(:O):O,1
SR_ceg_v1-3c_B_Ch_v2-6c_Zn_1_Ch_v3-4c_B_Ch_1B_2TrU_Ch_1x1x1,0.10365,0.93794,0.126539,8419.49,1065.39,27.74526,19.47527,52234.73621,,,,353,,16,16,12,C240H96O13Zn4,0.011461318,6,6c_Zn_1_Ch,348,O:C(:O)C#CC1:C:C:C(C#CC2:C:C3C#CC4:C:C:C(C#CC5:C:C6C#CC7:C:C:C(C#CC8:C:C(C#CC9:C:C:C(C#CC(:O):O):C:C:9):C:C(C#CC9:C:C:C(C#CC%10:C:C%11C#CC%12:C:C:C(C#CC%13:C:C(C#CC%14:C:C:C(C#CC(:O):O):C:C:%14):C:C(C#CC%14:C:C:C(C#CC%15:C:C(C#CC%16:C:C:C(C#CC(:C:2):C:3):C:C:%16):C2C#CC3:C:C:C(C#CC%16:C:C(C#CC%17:C:C:C(C#CC(:O):O):C:C:%17):C:C(C#CC%17:C:C:C(C#CC:%10:C:C:%11C#CC%10:C:C:C(C#CC%11:C:C(C#CC%18:C:C:C(C#CC(:O):O):C:C:%18):C:C(C#CC%18:C:C:C(C#CC:5:C:C:6C#CC5:C:C:C(C#CC6:C:C(C#CC%19:C:C:C(C#CC(:O):O):C:C:%19):C:C(C#CC%19:C:C:C(C#CC:%15:C:2):C:C:%19):C:6):C:C:5):C:C:%18):C:%11):C:C:%10):C:C:%17):C:%16):C:C:3):C:C:%14):C:%13):C:C:%12):C:C:9):C:8):C:C:7):C:C:4):C:C:1,1
SR_ddc_v1-3c_Cu_imadazoline_Ch_v2-4c_1anC_Ch_1B_2TrU_Ch_1x1x1,0.04179,0.96298,0.0871411,7996.15,696.794,51.06035,35.37724,147184.1037,,,,708,,48,48,48,C37Cu2H16N4,0.035087719,3,3c_Cu_imadazoline_Ch,228,C(#CC1:C:N:N:C:1)C1:C:C:C(C#CC2(C#CC3:C:C:C(C#CC4:C:N:N:C:4):C:C:3)C#CC3:C:C:C(C#CC(C#CC4:C:C:C(C#CC5:C:N:N:C:5):C:C:4)(C#CC4:C:C:C(C#CC5:C:N:N:C:5):C:C:4)C#CC4:C:C:C(C#CC(C#CC5:C:C:C(C#CC6:C:N:N:C:6):C:C:5)(C#CC5:C:C:C(C#CC6:C:N:N:C:6):C:C:5)C#CC5:C:C:C(C#CC(C#CC6:C:C:C(C#CC7:C:N:N:C:7):C:C:6)(C#CC6:C:C:C(C#CC7:C:N:N:C:7):C:C:6)C#CC6:C:C:C(C#C2):C:C:6):C:C:5):C:C:4):C:C:3):C:C:1,1
SR_crsd_v1-8c_Zr_1_Ch_v2-4c_1anC_Ch_ntn_edge_1B_4F_Ch_2x2x1,0.23823,0.4806,1.64582,0,0,5.05968,2.87852,57335.90363,,,,3296,,1536,1536,512,C33F16H16O32Zr6,0.06185567,8,8c_Zr_1_Ch,"6,53",O:C(:O)C(:O):O___O:C(:O)C1:C(F):C(F):C(:C(F):C:1F)C(C1:C(F):C(F):C(C(:O):O):C(F):C:1F)(C1:C(F):C(F):C(C(:O):O):C(F):C:1F)C1:C(F):C(F):C(C(:O):O):C(F):C:1F,1
SR_ces_v1-4c_B_Ch_v2-6c_Al_1_Ch_v3-4c_porphyrin_Ch_2B_4H_Ch_ntn_edge_2x2x1,1.0302,0.48516,1.06237,0,0,9.53678,2.00979,27857.05668,,,,1736,,120,120,96,Al3C126H69N6O13,0.014018692,6,6c_Al_1_Ch,426,O:C(:O)C1:C:C2C3:C:C:C(:C:C:3)C3:C:C:C(:C:C:3)C3:C4:C:C:C(:N:4):C4C5:C:C:C(:C:C:5)C5:C:C:C(:C:C:5)C5:C:C(C(:O):O):C(:C:C:5C5:C:C:C(:C:C:5)C5:C:C:C(:C:C:5)C5:C6:C:C:C(:N:6):C(C6:C:C:C(:C:C:6)C6:C:C:C(:C:C:6)C:2:C:C:1C(:O):O):C1:C:C:C(:[NH]:1):C1C2:C:C:C(:C:C:2)C2:C:C:C(:C:C:2)C2:C:C(C(:O):O):C(:C:C:2C2:C:C:C(:C:C:2)C2:C:C:C(:C:C:2)C2:C6:C:C:C(:N:6):C(C6:C:C:C(:C:C:6)C6:C:C:C(:C:C:6)C6:C:C(C(:O):O):C(:C:C:6C6:C:C:C(:C:C:6)C6:C:C:C(:C:C:6)C(:C6:C:C:C:1:N:6):C1:C:C:C:5:[NH]:1)C(:O):O):C1:C:C:C(:[NH]:1):C1C5:C:C:C(:C:C:5)C5:C:C:C(:C:C:5)C5:C:C(C(:O):O):C(:C:C:5C5:C:C:C(:C:C:5)C5:C:C:C(:C:C:5)C(:C5:C:C:C(:N:5):C(C5:C:C:C(:C:C:5)C5:C:C:C(:C:C:5)C5:C:C(C(:O):O):C(:C:C:5C5:C:C:C(:C:C:5)C5:C:C:C(:C:C:5)C(:C5:C:C:C:1:N:5):C1:C:C:C:2:[NH]:1)C(:O):O):C1:C:C:C:3:[NH]:1):C1:C:C:C:4:[NH]:1)C(:O):O)C(:O):O)C(:O):O,1
SR_brl_v1-4c_V_1_Ch_v2-4c_1anC_Ch_2B_4Br_Ch_1x1x2,0.10108,0.76338,1.04479,1532.72,1601.37,16.03423,14.84094,54801.78416,,,,816,,54,48,48,Br24C39O4V1,0.014925373,4,4c_V_1_Ch,402,O:C(:O)C1:C(Br):C(Br):C(:C(Br):C:1Br)C1:C(Br):C(Br):C(:C(Br):C:1Br)C1(C2:C(Br):C(Br):C(:C(Br):C:2Br)C2:C(Br):C(Br):C(C(:O):O):C(Br):C:2Br)C2:C(Br):C(Br):C(:C(Br):C:2Br)C2:C(Br):C(Br):C(:C(Br):C:2Br)C(C2:C(Br):C(Br):C(:C(Br):C:2Br)C2:C(Br):C(Br):C(C(:O):O):C(Br):C:2Br)(C2:C(Br):C(Br):C(:C(Br):C:2Br)C2:C(Br):C(Br):C(C(:O):O):C(Br):C:2Br)C2:C(Br):C(Br):C(:C(Br):C:2Br)C2:C(Br):C(Br):C(:C(Br):C:2Br)C(C2:C(Br):C(Br):C(:C(Br):C:2Br)C2:C(Br):C(Br):C(C(:O):O):C(Br):C:2Br)(C2:C(Br):C(Br):C(:C(Br):C:2Br)C2:C(Br):C(Br):C(C(:O):O):C(Br):C:2Br)C2:C(Br):C(Br):C(:C(Br):C:2Br)C2:C(Br):C(Br):C(:C(Br):C:2Br)C(C2:C(Br):C(Br):C(:C(Br):C:2Br)C2:C(Br):C(Br):C(C(:O):O):C(Br):C:2Br)(C2:C(Br):C(Br):C(:C(Br):C:2Br)C2:C(Br):C(Br):C(C(:O):O):C(Br):C:2Br)C2:C(Br):C(Br):C(:C(Br):C:2Br)C2:C(Br):C(Br):C(:C(Br):C:2Br)C(C2:C(Br):C(Br):C(:C(Br):C:2Br)C2:C(Br):C(Br):C(C(:O):O):C(Br):C:2Br)(C2:C(Br):C(Br):C(:C(Br):C:2Br)C2:C(Br):C(Br):C(C(:O):O):C(Br):C:2Br)C2:C(Br):C(Br):C(:C(Br):C:2Br)C2:C(Br):C(Br):C(:C(Br):C:2Br)C(C2:C(Br):C(Br):C(:C(Br):C:2Br)C2:C(Br):C(Br):C(C(:O):O):C(Br):C:2Br)(C2:C(Br):C(Br):C(:C(Br):C:2Br)C2:C(Br):C(Br):C(C(:O):O):C(Br):C:2Br)C2:C(Br):C(Br):C(:C(Br):C:2Br)C2:C(Br):C(Br):C1:C(Br):C:2Br,1
SR_cdz_v1-4c_V_1_Ch_v2-4c_V_1_Ch_1DoU_Ch_1B_4H_Ch_ntn_edge_2x1x2,3.703,0.69242,0.931905,2113.95,1970,8.23249,6.63918,27425.31236,,,,960,,432,384,384,C11H4O12V3,0.111111111,4,4c_V_1_Ch,"6,16,10",O:C(:O)C(:O):O___O:C(:O)C1:C:C:C(:C:C:1)C(:O):O___O:C(:O)C=CC(:O):O,1
SR_cdm_v1-4c_V_1_Ch_v2-4c_V_1_Ch_1DoU_Ch_ntn_edge_2x2x1,3.41176,0.5091,1.64607,0,0,5.32957,3.05875,27762.65097,,,,1472,,864,768,768,C7H1O12V3,0.15,4,4c_V_1_Ch,"6,10",O:C(:O)C(:O):O___O:C(:O)C=CC(:O):O,1
SR_btv_v1-5c_bicyclooctane_Ch_v2-6c_Zr_1_Ch_1B_2thiophene_Ch_ntn_edge_2x1x1,0.13133,0.85326,0.387354,3949.77,1529.96,23.77256,21.80353,51146.84063,,,,896,,192,192,48,C52H31N3O16S7Zr3,0.027522936,6,6c_Zr_1_Ch,,None,1
SR_ceq_v1-6c_Fe_1_Ch_v2-6c_bicyclooctane_Ch_v3-3c_pyrrole_Ch_1B_4Br_Ch_ntn_edge_2x3x2,0.34528,0.30376,2.57997,0,0,3.94397,1.07516,29638.59375,,,,1728,,180,180,144,Br24C82Fe3H16N6O13,0.021276596,6,6c_Fe_1_Ch,,None,1
SR_ceu_v1-4c_B_Ch_v2-6c_Zn_1_Ch_v3-4c_porphyrin_Ch_3B_fused_8H_Ch_1x1x1,0.12679,0.88288,0.253488,5796.4,1469.32,23.44263,15.65574,101308.8096,,,,1448,,64,64,48,C222H117N6O13Zn4,0.011173184,6,6c_Zn_1_Ch,,None,1
SR_cdm_v1-4c_V_1_Ch_v2-4c_V_1_Ch_ntn_edge_2x2x1,23.00056,0.52284,1.64458,0,0,5.28589,3.30701,26939.26454,,,,1344,,864,768,768,C2O4V1,0.166666667,4,4c_V_1_Ch,6,O:C(:O)C(:O):O,1
SR_cai_v1-5c_bicyclooctane_Ch_v2-6c_Ni_1_Ch_1B_2thiophene_Ch_ntn_edge_1x1x3,0.47763,0.66656,0.866512,1601.36,1387.6,13.53436,11.74703,39758.19062,,,,1632,,216,216,144,C37H15N3Ni2O7S4,0.03030303,6,6c_Ni_1_Ch,,None,1
SR_ced_v1-3c_B_Ch_v2-12c_Mn_1_Ch_2B_2CN_Ch_2x2x1,0.14221,0.77676,0.493013,4218.31,2079.68,13.89939,7.82084,81655.89342,,,,1844,,168,168,72,C288H78Mn8N60O27,0.017660044,12,12c_Mn_1_Ch,150,N#CC1:C:C(:C(C#N):C:C:1C(O):O)C1:C:C(C#N):C(:C:C:1C#N)C1:C:C(:C:C(:C:1)C1:C:C(C#N):C(:C:C:1C#N)C1:C:C(C#N):C(:C:C:1C#N)C1:C:C(:C:C(:C:1)C1:C:C(C#N):C(:C:C:1C#N)C1:C:C(C#N):C(:C:C:1C#N)C(:O):O)C1:C:C(C#N):C(:C:C:1C#N)C1:C:C(C#N):C(:C:C:1C#N)C(O):O)C1:C:C(C#N):C(:C:C:1C#N)C1:C:C(C#N):C(:C:C:1C#N)C(:O):O,1
SR_cdme_v1-4c_Cu_1_Ch_v2-4c_B_Ch_v3-4c_bicyclooctane_Ch_v4-4c_B_Ch_1TrU_Ch_2x2x1,0.558,0.80982,0.487606,4260.62,2077.51,10.67437,8.77647,33152.8081,,,,704,,144,128,128,C29Cu2H5O8,0.047619048,4,4c_Cu_1_Ch,"104,32",O:C(:O)C#CC1:C:C(C#CC(:O):O):C2C#CC3:C:C4C#CC5:C:C(C#CC6:C:C(C#CC:1:C:2):C1C#CC2:C:C(C#CC:3:C:C:4C#CC3:C:C(C#CC:6:C:1):C(C#CC(:O):O):C:C:3C#CC(:O):O):C(C#CC(:O):O):C:C:2C#CC(:O):O):C(C#CC(:O):O):C:C:5C#CC(:O):O___O:C(:O)C#CC1=CC2(C#CC(:O):O)C=C(C#CC(:O):O)C1C(C#CC(:O):O)=C2,1
SR_cee_v1-3c_Cu_imadazoline_Ch_v2-6c_B_Ch_v3-4c_Cu_1_Ch_ntn_edge_1B_2CH3_Ch_1x1x2,0.14828,0.85346,0.441624,4038.83,1783.64,15.13869,13.91699,34019.17422,,,,576,,126,120,120,C10Cu2H7N3O2,0.090909091,"3,4","3c_Cu_imadazoline_Ch,4c_Cu_1_Ch","144,10",CC1:C:C(:C(C):C:C:1C1:C:N:N:C:1)C1:C(C2:C:C(C):C(:C:C:2C)C2:C:N:N:C:2):C(C2:C:C(C):C(:C:C:2C)C2:C:N:N:C:2):C(C2:C:C(C):C(:C:C:2C)C2:C:N:N:C:2):C(C2:C:C(C):C(:C:C:2C)C2:C:N:N:C:2):C:1C1:C:C(C):C(:C:C:1C)C1:C:N:N:C:1___O:C(:O)C1:C:N:N:C:1,1
SR_cdn_v1-4c_Cu_1_Ch_v2-4c_Cu_1_Ch_ntn_edge_1B_4H_Ch_2x2x1,2.78124,0.78532,0.63481,3953.9,2509.98,10.96572,7.73085,139713.2262,,,,3712,,1152,1024,1024,C13Cu2H6O8,0.074074074,4,4c_Cu_1_Ch,"6,16",O:C(:O)C(:O):O___O:C(:O)C1:C:C:C(:C:C:1)C(:O):O,1
SR_cdn_v1-4c_Cu_1_Ch_v2-4c_Cu_1_Ch_1TrU_Ch_1DoU_Ch_1B_4H_Ch_2x2x1,1.07209,0.73416,0.809852,2828.76,2290.88,10.90726,5.56777,102835.6184,,,,3264,,1152,1024,1024,C22Cu4H9O16,0.085106383,4,4c_Cu_1_Ch,"8,16,10",O:C(:O)C#CC(:O):O___O:C(:O)C1:C:C:C(:C:C:1)C(:O):O___O:C(:O)C=CC(:O):O,1
SR_ced_v1-3c_triazine_Ch_v2-12c_Mn_1_Ch_ntn_edge_1TrU_Ch_2x2x2,0.78123,0.67554,0.8898,2476.02,2203.16,7.94898,5.90381,30568.74568,,,,856,,336,336,144,C54Mn8N18O27,0.080808081,12,12c_Mn_1_Ch,32,OC(:O)C#CC1:N:C(C#CC(:O):O):N:C(:N:1)C1:N:C(C#CC(O):O):N:C(C#CC(:O):O):N:1,1
SR_btv_v1-5c_bicyclooctane_Ch_v2-6c_Ni_1_Ch_ntn_edge_2B_2CN_Ch_2x1x1,0.30367,0.58774,0.969437,1234.69,1196.96,11.46518,10.03486,13564.78159,,,,672,,72,72,48,C49H15N11Ni2O7,0.024390244,6,6c_Ni_1_Ch,,None,1
SR_crsd_v1-8c_Mn_1_Ch_v2-4c_bicyclooctane_Ch_ntn_edge_1DoU_Ch_1x1x1,0.29339,0.66774,0.876267,2486.45,2178.8,6.9399,4.61059,15225.19156,,,,584,,160,160,128,C24Cl1H12Mn4N32,0.057971014,8,8c_Mn_1_Ch,"48,10",C(=CC1:N:N:N:N:1)C1=CC2(C=CC3:N:N:N:N:3)C=C(C=CC3:N:N:N:N:3)C1C(C=CC1:N:N:N:N:1)=C2___N1:N:N:C(:N:1)C1:N:N:N:N:1,1