name,k,VF,density,ASA_grav,ASA_vol,LPD,PLD,volume,,,,N_atoms,,N_metal_containing_bonds,N_metal_nonmetal_bonds,N_metal_linker_bonds,formula,metal_nonmetal_ratio,metal_node_connectivity,metal_node_name,N_atoms_per_linker,linker_SMILES,N_ccs
SR_bch_v1-3c_triazine_Ch_v2-3c_triazine_Ch_v3-6c_Mg_1_Ch_2B_2F_Ch_1x1x1,0.09162,0.92326,0.186826,5649.97,1055.56,26.27391,22.17422,213999.1165,,,,2016,,240,240,96,C22F6H7Mg1N2O4,0.024390244,6,6c_Mg_1_Ch,222,O:C(:O)C1:C:C(F):C(:C:C:1F)C1:C:C(F):C(:C:C:1F)C1:N:C(:N:C(:N:1)C1:C:C(F):C(:C:C:1F)C1:C:C(F):C(:C:C:1F)C1:N:C(:N:C(:N:1)C1:C:C(F):C(:C:C:1F)C1:C:C(F):C(:C:C:1F)C1:N:C(:N:C(:N:1)C1:C:C(F):C(:C:C:1F)C1:C:C(F):C(:C:C:1F)C(:O):O)C1:C:C(F):C(:C:C:1F)C1:C:C(F):C(:C:C:1F)C(:O):O)C1:C:C(F):C(:C:C:1F)C1:C:C(F):C(:C:C:1F)C1:N:C(:N:C(:N:1)C1:C:C(F):C(:C:C:1F)C1:C:C(F):C(:C:C:1F)C(:O):O)C1:C:C(F):C(:C:C:1F)C1:C:C(F):C(:C:C:1F)C(:O):O)C1:C:C(F):C(:C:C:1F)C1:C:C(F):C(:C:C:1F)C(:O):O,1
SR_bch_v1-3c_triazine_Ch_v2-3c_triazine_Ch_v3-6c_Mg_1_Ch_2B_2OH_Ch_1x1x1,0.06677,0.91958,0.181845,5997.82,1090.67,26.08801,21.82629,214624.8966,,,,2304,,240,240,96,C22H13Mg1N2O10,0.021276596,6,6c_Mg_1_Ch,258,O:C(:O)C1:C:C(O):C(:C:C:1O)C1:C:C(O):C(:C:C:1O)C1:N:C(:N:C(:N:1)C1:C:C(O):C(:C:C:1O)C1:C:C(O):C(:C:C:1O)C1:N:C(:N:C(:N:1)C1:C:C(O):C(:C:C:1O)C1:C:C(O):C(:C:C:1O)C1:N:C(:N:C(:N:1)C1:C:C(O):C(:C:C:1O)C1:C:C(O):C(:C:C:1O)C(:O):O)C1:C:C(O):C(:C:C:1O)C1:C:C(O):C(:C:C:1O)C(:O):O)C1:C:C(O):C(:C:C:1O)C1:C:C(O):C(:C:C:1O)C1:N:C(:N:C(:N:1)C1:C:C(O):C(:C:C:1O)C1:C:C(O):C(:C:C:1O)C(:O):O)C1:C:C(O):C(:C:C:1O)C1:C:C(O):C(:C:C:1O)C(:O):O)C1:C:C(O):C(:C:C:1O)C1:C:C(O):C(:C:C:1O)C(:O):O,1
SR_bch_v1-3c_B_Ch_v2-3c_B_Ch_v3-6c_Mg_1_Ch_1B_2CF3_Ch_1x1x1,0.10708,0.81002,0.478424,3829.05,1831.91,16.08248,13.17144,80223.77287,,,,1824,,240,240,96,C18F9H6Mg1O4,0.027027027,6,6c_Mg_1_Ch,198,O:C(:O)C1:C:C(:C(:C:C:1C(F)(F)F)C1:C:C(:C:C(:C:1)C1:C:C(:C(:C:C:1C(F)(F)F)C1:C:C(:C:C(:C:1)C1:C:C(:C(:C:C:1C(F)(F)F)C1:C:C(:C:C(:C:1)C1:C:C(:C(:C:C:1C(F)(F)F)C(:O):O)C(F)(F)F)C1:C:C(:C(:C:C:1C(F)(F)F)C(:O):O)C(F)(F)F)C(F)(F)F)C1:C:C(:C(:C:C:1C(F)(F)F)C1:C:C(:C:C(:C:1)C1:C:C(:C(:C:C:1C(F)(F)F)C(:O):O)C(F)(F)F)C1:C:C(:C(:C:C:1C(F)(F)F)C(:O):O)C(F)(F)F)C(F)(F)F)C(F)(F)F)C1:C:C(:C(:C:C:1C(F)(F)F)C(:O):O)C(F)(F)F)C(F)(F)F,1
SR_bby_v1-4c_In_1_Ch_v2-4c_In_1_Ch_2B_4Br_Ch_1x1x1,0.01288,0.93456,0.293018,2439.8,714.904,88.74724,82.81071,437611.8114,,,,1908,,288,288,288,Br16C28In1O8,0.019230769,4,4c_In_1_Ch,26,O:C(:O)C1:C(Br):C(Br):C(:C(Br):C:1Br)C1:C(Br):C(Br):C(C(:O):O):C(Br):C:1Br,1
SR_bby_v1-4c_bicyclooctane_Ch_v2-4c_In_1_Ch_2TrU_Ch_1TrU_Ch_1x1x2,0.0453,0.92024,0.234937,4715.59,1107.87,49.96738,46.01439,169764.8085,,,,1248,,384,384,384,C15H2In1O8,0.04,4,4c_In_1_Ch,"8,104",O:C(:O)C#CC(:O):O___O:C(:O)C#CC1=CC23C#CC#CC45C=C(C#CC#CC6=CC7(C#CC#CC89C=C(C#CC#CC(=C2)C1C(C#CC(:O):O)=C3)C(C(C#CC(:O):O)=C8)C(C#CC(:O):O)=C9)C=C(C#CC(:O):O)C6C(C#CC(:O):O)=C7)C(C(C#CC(:O):O)=C4)C(C#CC(:O):O)=C5,1
SR_bbx_v1-4c_Cd_1_Ch_v2-4c_pyrene_Ch_ntn_edge_1B_2NO2_Ch_1x1x1,0.03455,0.8937,0.266365,4524.56,1205.19,20.53291,18.26332,64265.64406,,,,693,,72,72,72,C38Cd1H12N6O20,0.013157895,4,4c_Cd_1_Ch,"20,168",O:C(:O)C1:C:C(:C(:C:C:1N(:O):O)C(:O):O)N(:O):O___O:C(:O)C1:C:C(:C(:C:C:1N(:O):O)C1:C:C2C3:C:C(C4:C:C(:C(:C:C:4N(:O):O)C(:O):O)N(:O):O):C4:C:C:C5:C(:C:C(C6:C:C(C7:C:C(:C(:C:C:7N(:O):O)C(:O):O)N(:O):O):C7:C:C:C8:C(:C:C(C9:C:C(C%10:C:C(:C(:C:C:%10N(:O):O)C(:O):O)N(:O):O):C%10:C:C:C:1:C1:C:2:C:C:C:9:C:%10:1):C1:C:C:C:6:C:7:C:8:1)C1:C:C(:C(:C:C:1N(:O):O)C(:O):O)N(:O):O):C1:C:C:C:3:C:4:C:5:1)C1:C:C(:C(:C:C:1N(:O):O)C(:O):O)N(:O):O)N(:O):O,1
SR_bce_v1-4c_In_1_Ch_v2-4c_bicyclooctane_Ch_1B_2F_Ch_1x1x1,0.05529,0.8708,0.355212,4103.63,1457.66,29.12188,25.70754,50652.47705,,,,784,,128,128,128,C26F6H8In1O8,0.020833333,4,4c_In_1_Ch,"16,384",O:C(:O)C1:C:C(F):C(:C:C:1F)C(:O):O___O:C(:O)C1:C:C(F):C(:C:C:1F)C1=CC23C=C(C4:C:C(F):C(:C:C:4F)C4=CC5(C=C(C6:C:C(F):C(:C:C:6F)C(:O):O)C4C(=C5)C4:C:C(F):C(:C:C:4F)C(:O):O)C4:C:C(F):C(:C:C:4F)C45C=C(C6:C:C(F):C(:C:C:6F)C6=CC7(C=C(C8:C:C(F):C(:C:C:8F)C(:O):O)C6C(=C7)C6:C:C(F):C(:C:C:6F)C(:O):O)C6:C:C(F):C(:C:C:6F)C67C=C(C8:C:C(F):C(:C:C:8F)C8=CC9(C=C(C%10:C:C(F):C(:C:C:%10F)C(:O):O)C8C(=C9)C8:C:C(F):C(:C:C:8F)C(:O):O)C8:C:C(F):C(:C:C:8F)C89C=C(C%10:C:C(F):C(:C:C:%10F)C%10=CC%11(C=C(C%12:C:C(F):C(:C:C:%12F)C(:O):O)C%10C(=C%11)C%10:C:C(F):C(:C:C:%10F)C(:O):O)C%10:C:C(F):C2:C:C:%10F)C(C(=C8)C2:C:C(F):C(:C:C:2F)C(:O):O)C(=C9)C2:C:C(F):C(:C:C:2F)C(:O):O)C(C(=C6)C2:C:C(F):C(:C:C:2F)C(:O):O)C(=C7)C2:C:C(F):C(:C:C:2F)C(:O):O)C(C(=C4)C2:C:C(F):C(:C:C:2F)C(:O):O)C(=C5)C2:C:C(F):C(:C:C:2F)C(:O):O)C1C(=C3)C1:C:C(F):C(:C:C:1F)C(:O):O,1
SR_bby_v1-4c_bicyclooctane_Ch_v2-4c_Cd_1_Ch_1B_2NH2_Ch_1x1x1,0.03654,0.91056,0.222124,4816.33,1069.82,54.89346,53.64739,138661.6282,,,,1464,,192,192,192,C26Cd1H20N6O8,0.016666667,4,4c_Cd_1_Ch,"20,240",NC1:C:C(C(:O):O):C(N):C:C:1C(:O):O___NC1:C:C2C3=CC4(C=C(C5:C:C(N):C(:C:C:5N)C(:O):O)C3C(=C4)C3:C:C(N):C(:C:C:3N)C(:O):O)C3:C:C(N):C(:C:C:3N)C34C=C(C5:C:C(N):C(:C:C:5N)C5=CC6(C=C(C7:C:C(N):C(:C:C:7N)C(:O):O)C5C(=C6)C5:C:C(N):C(:C:C:5N)C(:O):O)C5:C:C(N):C(:C:C:5N)C56C=C(C:1:C:C:2N)C(C(=C5)C1:C:C(N):C(:C:C:1N)C(:O):O)C(=C6)C1:C:C(N):C(:C:C:1N)C(:O):O)C(C(=C3)C1:C:C(N):C(:C:C:1N)C(:O):O)C(=C4)C1:C:C(N):C(:C:C:1N)C(:O):O,1
SR_bbs_v1-4c_Cd_1_Ch_v2-4c_ethene_Ch_ntn_edge_1B_2CN_Ch_1x1x3,0.10927,0.7133,0.70973,2140.01,1518.83,13.2611,12.84168,33799.26347,,,,918,,144,144,144,C30Cd1H6N6O8,0.02,4,4c_Cd_1_Ch,,None,1
SR_bcf_v1-4c_bicyclooctane_Ch_v2-4c_Cd_1_Ch_1B_2indole_Ch_ntn_edge_1x1x1,0.07087,0.90772,0.230004,5267.84,1211.63,36.1378,29.11357,89407.5499,,,,1120,,128,128,128,C37Cd1H19N5O8,0.014492754,4,4c_Cd_1_Ch,"6,480",O:C(:O)C(:O):O___O:C(:O)C1:C:C2:C:C3:[NH]:C(:C:C:3:C:C:2:[NH]:1)C12C=C3C4:C:C5:C:C6:[NH]:C(:C:C:6:C:C:5:[NH]:4)C4=CC5(C=C6C7:C:C8:C:C9:[NH]:C(:C:C:9:C:C:8:[NH]:7)C7=CC8(C=C9C%10:C:C%11:C:C%12:[NH]:C(:C:C:%12:C:C:%11:[NH]:%10)C%10=CC%11(C=C%12C%13:C:C%14:C:C%15:[NH]:C(:C:C:%15:C:C:%14:[NH]:%13)C(=C1)C3C(=C2)C1:C:C2:C:C3:[NH]:C(:C:C:3:C:C:2:[NH]:1)C1=CC2(C=C3C%13:C:C%14:C:C%15:[NH]:C(:C:C:%15:C:C:%14:[NH]:%13)C%13=CC%14(C=C(C%15:C:C%16:C:C%17:[NH]:C(:C:C:%17:C:C:%16:[NH]:%15)C(=C5)C46)C%13C(=C%14)C4:C:C5:C:C6:[NH]:C(:C:C:6:C:C:5:[NH]:4)C4=CC5(C=C(C6:C:C%13:C:C%14:[NH]:C(:C:C:%14:C:C:%13:[NH]:6)C(=C8)C79)C4C(=C5)C4:C:C5:C:C6:[NH]:C(:C:C:6:C:C:5:[NH]:4)C4=CC5(C=C(C6:C:C7:C:C8:[NH]:C(:C:C:8:C:C:7:[NH]:6)C(=C%11)C%12%10)C4C(=C5)C4:C:C5:C:C6:[NH]:C(:C:C:6:C:C:5:[NH]:4)C(=C2)C13)C1:C:C2:C:C3:[NH]:C(:C:C:3:C:C:2:[NH]:1)C(:O):O)C1:C:C2:C:C3:[NH]:C(:C:C:3:C:C:2:[NH]:1)C(:O):O)C1:C:C2:C:C3:[NH]:C(:C:C:3:C:C:2:[NH]:1)C(:O):O)C1:C:C2:C:C3:[NH]:C(:C:C:3:C:C:2:[NH]:1)C(:O):O)C1:C:C2:C:C3:[NH]:C(:C:C:3:C:C:2:[NH]:1)C(:O):O)C1:C:C2:C:C3:[NH]:C(:C:C:3:C:C:2:[NH]:1)C(:O):O)C1:C:C2:C:C3:[NH]:C(:C:C:3:C:C:2:[NH]:1)C(:O):O,1
SR_bcd_v1-4c_bicyclooctane_Ch_v2-4c_In_1_Ch_ntn_edge_1TrU_Ch_1B_4H_Ch_1x1x2,0.08692,0.84604,0.424486,3838.28,1629.29,24.62126,21.84223,58470.98258,,,,1120,,256,256,256,C18H8In1O8,0.029411765,4,4c_In_1_Ch,"16,80",O:C(:O)C1:C:C:C(:C:C:1)C(:O):O___O:C(:O)C1=CC23C#CC45C=C(C#CC6=CC7(C#CC89C=C(C#CC(=C2)C1C(=C3)C(:O):O)C(C(=C8)C(:O):O)C(=C9)C(:O):O)C=C(C(:O):O)C6C(=C7)C(:O):O)C(C(=C4)C(:O):O)C(=C5)C(:O):O,1
SR_bbl_v1-4c_In_1_Ch_v2-4c_1anC_Ch_ntn_edge_1B_2F_Ch_2x3x1,0.31187,0.63456,1.00267,1398.65,1402.39,9.10523,7.72069,34869.95185,,,,1560,,192,192,192,C36F10H10In1O8,0.015625,4,4c_In_1_Ch,,None,1
SR_bce_v1-4c_bicyclooctane_Ch_v2-4c_In_1_Ch_2TrU_Ch_1TrU_Ch_1x1x1,0.04589,0.9164,0.196612,6103.15,1199.95,33.0007,32.06617,49411.97382,,,,456,,64,64,64,C40H8In1O8,0.017857143,4,4c_In_1_Ch,"10,184",O:C(:O)C#CC#CC(:O):O___O:C(:O)C#CC12C=C3C#CC#CC4=CC5(C#CC(:O):O)C=C6C#CC#CC7=CC8(C#CC(:O):O)C=C9C#CC#CC%10=CC%11(C#CC(:O):O)C=C%12C#CC#CC(=C1)C3C(C#CC#CC1=CC3(C#CC(:O):O)C=C%13C#CC#CC%14=CC%15(C#CC(:O):O)C=C(C#CC#CC(=C5)C46)C%14C(C#CC#CC4=CC5(C#CC(:O):O)C=C(C#CC#CC(=C8)C79)C4C(C#CC#CC4=CC6(C#CC(:O):O)C=C(C#CC#CC(=C%11)C%12%10)C4C(C#CC#CC(=C3)C1%13)=C6)=C5)=C%15)=C2,1
SR_bne_v1-4c_B_Ch_v2-4c_Cd_1_Ch_2B_4F_Ch_1x1x6,0.16242,0.61322,1.11901,913.252,1021.94,13.13185,12.27741,74791.39939,,,,3120,,384,384,384,C71Cd2F40H1O16,0.015625,4,4c_Cd_1_Ch,"26,100",O:C(:O)C1:C(F):C(F):C(:C(F):C:1F)C1:C(F):C(F):C(C(:O):O):C(F):C:1F___O:C(:O)C1:C(F):C(F):C(:C(F):C:1F)C1:C(F):C(F):C(C2:C:C(:C(:C:C:2C2:C(F):C(F):C(:C(F):C:2F)C2:C(F):C(F):C(C(:O):O):C(F):C:2F)C2:C(F):C(F):C(:C(F):C:2F)C2:C(F):C(F):C(C(:O):O):C(F):C:2F)C2:C(F):C(F):C(:C(F):C:2F)C2:C(F):C(F):C(C(:O):O):C(F):C:2F):C(F):C:1F,1
SR_bcu_v1-8c_Co_2_Ch_2B_4Br_Ch_2x1x2,0.31187,0.74812,1.02067,2054.92,2097.4,11.15132,7.76756,51294.01493,,,,1064,,160,160,128,Br32C64Cl1Co4H8N24,0.031007752,8,8c_Co_2_Ch,32,BrC1:C(Br):C(:C(Br):C(Br):C:1C1C:N:N:N:1)C1:C(Br):C(Br):C(C2C:N:N:N:2):C(Br):C:1Br,1
SR_bcv_v1-4c_Cd_1_Ch_v2-4c_Cd_1_Ch_1B_2NO2_Ch_1x1x1,0.04148,0.89662,0.2945,4180.82,1231.25,28.64048,22.47848,419945.9295,,,,4920,,960,960,960,C16Cd1H4N4O16,0.025,4,4c_Cd_1_Ch,20,O:C(:O)C1:C:C(:C(:C:C:1N(:O):O)C(:O):O)N(:O):O,1
SR_bix_v1-4c_1anC_Ch_v2-6c_CdZn_1_Ch_v3-6c_CdZn_1_Ch_ntn_edge_1x1x1,0.24807,0.46428,2.69892,0,0,5.16763,3.01692,13795.53312,,,,784,,512,512,384,C15Cd6O26Zn2,0.195121951,6,6c_CdZn_1_Ch,13,O:C(:O)C(C(:O):O)(C(:O):O)C(:O):O,1
SR_bix_v1-4c_bicyclooctane_Ch_v2-6c_CdZn_1_Ch_v3-6c_CdZn_1_Ch_1DoU_Ch_ntn_edge_1x1x1,0.143,0.72994,0.920246,2207.55,2031.49,12.3917,6.77167,54857.60247,,,,1888,,512,512,384,C27Cd3H15O13Zn1,0.072727273,6,6c_CdZn_1_Ch,36,O:C(:O)C=CC1=CC2(C=CC(:O):O)C=C(C=CC(:O):O)C1C(=C2)C(:O):O,1
SR_bcs_v1-6c_Zn_1_Ch_1B_2Br_Ch_1x1x1,0.1461,0.67082,1.27837,1322.26,1690.33,7.2599,4.12303,25840.41835,,,,848,,256,256,192,Br6C24H6O13Zn4,0.081632653,6,6c_Zn_1_Ch,16,O:C(:O)C1:C:C(Br):C(:C:C:1Br)C(:O):O,1
SR_bcu_v1-8c_Co_2_Ch_1B_2TrU_Ch_2x1x2,0.40022,0.8722,0.303666,6013.36,1826.05,16.29706,12.22044,57052.47889,,,,872,,160,160,128,C56Cl1Co4H24N24,0.038095238,8,8c_Co_2_Ch,26,C(#CC1:C:C:C(C#CC2C:N:N:N:2):C:C:1)C1C:N:N:N:1,1
SR_bix_v1-4c_bicyclooctane_Ch_v2-6c_CdZn_1_Ch_v3-6c_bicyclooctane_Ch_1DoU_Ch_1x1x1,0.32846,0.65532,0.812725,2131.83,1732.59,8.85127,5.63706,36004.39471,,,,1768,,128,128,96,C126Cd3H78O13Zn1,0.01843318,6,6c_CdZn_1_Ch,,None,1
SR_bcu_v1-8c_Tb_1_Ch_1B_2NO2_Ch_2x2x2,0.24567,0.3829,1.87778,0,0,4.02642,1.63217,18881.64508,,,,1312,,256,256,256,C16H4N4O16Tb1,0.025,8,8c_Tb_1_Ch,20,O:C(:O)C1:C:C(:C(:C:C:1N(:O):O)C(:O):O)N(:O):O,1
SR_bcu_v1-8c_Co_1_Ch_1B_2DoU_Ch_2x2x2,0.19989,0.80516,0.476882,4569.71,2179.21,11.71156,9.31735,62276.73586,,,,1616,,320,320,256,C48Co4H32O17,0.041237113,8,8c_Co_1_Ch,24,O:C(:O)C=CC1:C:C:C(C=CC(:O):O):C:C:1,1
SR_bix_v1-4c_bicyclooctane_Ch_v2-6c_CdZn_1_Ch_v3-6c_CdZn_1_Ch_1B_4CN_Ch_1x1x1,0.1005,0.71776,0.752292,2400.2,1805.66,12.9744,7.57413,133475.9941,,,,4000,,512,512,384,C78Cd3H6N24O13Zn1,0.033057851,6,6c_CdZn_1_Ch,80,N#CC1:C(C#N):C(C(:O):O):C(C#N):C(C#N):C:1C1=CC2(C=C(C3:C(C#N):C(C#N):C(C(:O):O):C(C#N):C:3C#N)C1C(=C2)C1:C(C#N):C(C#N):C(C(:O):O):C(C#N):C:1C#N)C1:C(C#N):C(C#N):C(C(:O):O):C(C#N):C:1C#N,1
SR_bcuh_v1-3c_Cu_imadazoline_Ch_1B_2furan_Ch_1x1x1,0.03138,0.97582,0.0737678,6454.35,476.123,43.69759,29.15911,224397.1289,,,,768,,96,96,96,C8Cu1H4N2O1,0.066666667,3,3c_Cu_imadazoline_Ch,30,C1:N:N:C:C:1C1:C:C2:C:C3:O:C(:C:C:3:C:C:2:O:1)C1:C:N:N:C:1,1
SR_bix_v1-4c_bicyclooctane_Ch_v2-6c_Ni_1_Ch_v3-6c_bicyclooctane_Ch_1B_2CH3_Ch_ntn_edge_1x1x1,0.33111,0.57658,0.851788,1486.6,1266.27,7.98807,4.1691,51537.09647,,,,3328,,144,144,96,C111H88Ni2O7,0.009708738,6,6c_Ni_1_Ch,,None,1
SR_bcu_v1-8c_Co_1_Ch_1B_4CN_Ch_2x2x2,0.32721,0.46444,1.40969,0,0,4.57383,2.68043,24686.25032,,,,1360,,320,320,256,C48Co4N16O17,0.049382716,8,8c_Co_1_Ch,20,N#CC1:C(C#N):C(C(:O):O):C(C#N):C(C#N):C:1C(:O):O,1
SR_bix_v1-4c_bicyclooctane_Ch_v2-6c_CdZn_1_Ch_v3-6c_CdZn_1_Ch_2B_2Br_Ch_1x1x1,0.04409,0.85402,0.545901,3067.32,1674.45,20.54055,14.1158,354268.7998,,,,5152,,512,512,384,Br24C90Cd3H30O13Zn1,0.025477707,6,6c_CdZn_1_Ch,104,O:C(:O)C1:C:C(Br):C(:C:C:1Br)C1:C:C(Br):C(:C:C:1Br)C1=CC2(C=C(C3:C:C(Br):C(:C:C:3Br)C3:C:C(Br):C(:C:C:3Br)C(:O):O)C1C(=C2)C1:C:C(Br):C(:C:C:1Br)C1:C:C(Br):C(:C:C:1Br)C(:O):O)C1:C:C(Br):C(:C:C:1Br)C1:C:C(Br):C(:C:C:1Br)C(:O):O,1
SR_bix_v1-4c_bicyclooctane_Ch_v2-6c_CdZn_1_Ch_v3-6c_CdZn_1_Ch_ntn_edge_1x1x1,0.19112,0.61564,1.53993,916.682,1411.63,7.74332,4.79196,28738.71061,,,,1312,,512,512,384,C18Cd3H6O13Zn1,0.108108108,6,6c_CdZn_1_Ch,24,O:C(:O)C1=CC2(C=C(C(:O):O)C1C(=C2)C(:O):O)C(:O):O,1
SR_bcu_v1-8c_Co_1_Ch_1B_2CH3_Ch_2x2x2,0.34912,0.55962,1.11823,831.348,929.637,6.68488,4.6557,24281.19164,,,,1488,,320,320,256,C40Co4H32O17,0.04494382,8,8c_Co_1_Ch,22,CC1:C:C(C(:O):O):C(C):C:C:1C(:O):O,1
SR_bcuk_v1-6c_Al_1_Ch_2TrU_Ch_1x1x1,0.34278,0.85224,0.362454,4945.75,1792.61,26.89609,12.58619,111081.337,,,,1632,,720,720,576,Al3C18O13,0.096774194,6,6c_Al_1_Ch,10,O:C(:O)C#CC#CC(:O):O,1
SR_bcs_v1-6c_Mg_1_Ch_1B_2NO2_Ch_1x1x1,0.33317,0.76522,0.569527,3614.74,2058.69,10.89898,8.34475,54966.3348,,,,1440,,480,480,192,C5H2Mg1N1O6,0.071428571,6,6c_Mg_1_Ch,20,O:C(:O)C1:C:C(:C(:C:C:1N(:O):O)C(:O):O)N(:O):O,1
SR_bcx_v1-4c_1anC_Ch_v2-4c_Cd_1_Ch_1DoU_Ch_ntn_edge_1x1x1,0.12636,0.72528,0.90474,2308.69,2088.77,10.0325,5.45083,14051.69147,,,,416,,192,192,192,C19Cd3H6O24,0.06122449,4,4c_Cd_1_Ch,"6,44",O:C(:O)C(:O):O___O:C(:O)C=CC(C=CC(:O):O)(C=CC(:O):O)C(C=CC(:O):O)(C=CC(:O):O)C=CC(:O):O,1
SR_bcuk_v1-6c_Fe_1_Ch_1B_4F_Ch_1x1x1,0.21588,0.75506,0.730139,2231.84,1629.56,22.35401,9.19474,97350.36933,,,,2496,,720,720,576,C24F12Fe3O13,0.06122449,6,6c_Fe_1_Ch,16,O:C(:O)C1:C(F):C(F):C(C(:O):O):C(F):C:1F,1
SR_bix_v1-4c_1anC_Ch_v2-6c_Zn_1_Ch_v3-6c_Zn_1_Ch_ntn_edge_1B_2NH2_Ch_1x1x1,0.15239,0.58774,1.12576,910.442,1024.94,10.58294,3.64109,48958.4498,,,,2800,,512,512,384,C69H54N18O26Zn8,0.047904192,6,6c_Zn_1_Ch,55,NC1:C:C(:C(N):C:C:1C(:O):O)C(C(:O):O)(C1:C:C(N):C(:C:C:1N)C(:O):O)C1:C:C(N):C(:C:C:1N)C(:O):O,1
SR_bix_v1-4c_bicyclooctane_Ch_v2-6c_Zn_1_Ch_v3-6c_Zn_1_Ch_1B_4Br_Ch_1x1x1,0.06912,0.70388,1.23853,1410.82,1747.34,12.90457,8.02301,130507.8832,,,,3232,,512,512,384,Br24C54H6O13Zn4,0.041237113,6,6c_Zn_1_Ch,64,O:C(:O)C1:C(Br):C(Br):C(C2=CC3(C=C(C4:C(Br):C(Br):C(C(:O):O):C(Br):C:4Br)C2C(=C3)C2:C(Br):C(Br):C(C(:O):O):C(Br):C:2Br)C2:C(Br):C(Br):C(C(:O):O):C(Br):C:2Br):C(Br):C:1Br,1
SR_bcu_v1-8c_Co_2_Ch_1B_2furan_Ch_2x1x2,0.35404,0.83142,0.431105,4518.04,1947.75,15.96164,11.29476,44131.17616,,,,936,,160,160,128,C56Cl1Co4H24N24O8,0.03539823,8,8c_Co_2_Ch,28,C1:N:N:N:C1C1:C:C2:C:C3:O:C(:C:C:3:C:C:2:O:1)C1C:N:N:N:1,1
SR_bcu_v1-8c_Co_1_Ch_1DoU_Ch_2x2x3,0.33317,0.58264,1.30114,896.819,1166.88,5.56524,3.75128,21726.84025,,,,1080,,480,480,384,C16Co4H8O17,0.097560976,8,8c_Co_1_Ch,10,O:C(:O)C=CC(:O):O,1
SR_bcu_v1-8c_Mn_1_Ch_2B_1TrU_Ch_1x1x1,0.447,0.8811,0.277381,5761.31,1598.08,19.28881,14.23831,18012.01957,,,,266,,40,40,32,C64Cl1H32Mn4N32,0.031007752,8,8c_Mn_1_Ch,32,C(#CC1:C:C:C(:C:C:1)C1:N:N:N:N:1)C1:C:C:C(:C:C:1)C1:N:N:N:N:1,1
SR_bcu_v1-8c_Co_2_Ch_2B_4H_Ch_2x1x2,0.54699,0.83552,0.38607,4860.36,1876.44,16.68203,11.00585,48736.19992,,,,1064,,160,160,128,C64Cl1Co4H40N24,0.031007752,8,8c_Co_2_Ch,32,C1:N:N:N:C1C1:C:C:C(:C:C:1)C1:C:C:C(:C:C:1)C1C:N:N:N:1,1
SR_bcu_v1-8c_Co_2_Ch_2B_2CN_Ch_2x1x2,0.35992,0.79628,0.477403,4323.52,2064.06,12.60661,9.21621,50547.37033,,,,1192,,160,160,128,C80Cl1Co4H24N40,0.027586207,8,8c_Co_2_Ch,36,N#CC1:C:C(:C(C#N):C:C:1C1C:N:N:N:1)C1:C:C(C#N):C(:C:C:1C#N)C1C:N:N:N:1,1
SR_bcz_v1-4c_bicyclooctane_Ch_v2-4c_Cd_1_Ch_ntn_edge_1B_2thiophene_Ch_1x1x1,0.06932,0.88282,0.316215,5018.99,1587.08,21.77181,15.86599,90124.3388,,,,1224,,192,192,192,C28Cd1H10O8S4,0.02,4,4c_Cd_1_Ch,"22,102",O:C(:O)C1:C:C2:C:C3:S:C(:C:C:3:C:C:2:S:1)C(:O):O___O:C(:O)C1=CC2(C=C3C4:C:C5:C:C6:S:C(:C:C:6:C:C:5:S:4)C4=CC5(C=C(C(:O):O)C4C(=C5)C4:C:C5:C:C6:S:C(:C:C:6:C:C:5:S:4)C4=CC5(C=C(C(:O):O)C4C(=C5)C4:C:C5:C:C6:S:C(:C:C:6:C:C:5:S:4)C(=C2)C13)C(:O):O)C(:O):O)C(:O):O,1
SR_bix_v1-4c_bicyclooctane_Ch_v2-6c_CdZn_1_Ch_v3-6c_CdZn_1_Ch_1B_2CN_Ch_1x1x1,0.1054,0.76452,0.643286,3172.98,2041.14,12.529,8.66383,131303.073,,,,3616,,512,512,384,C66Cd3H18N12O13Zn1,0.036697248,6,6c_CdZn_1_Ch,72,N#CC1:C:C(C(:O):O):C(C#N):C:C:1C1=CC2(C=C(C3:C:C(C#N):C(:C:C:3C#N)C(:O):O)C1C(=C2)C1:C:C(C#N):C(:C:C:1C#N)C(:O):O)C1:C:C(C#N):C(:C:C:1C#N)C(:O):O,1
SR_bix_v1-4c_bicyclooctane_Ch_v2-6c_CdZn_1_Ch_v3-6c_CdZn_1_Ch_ntn_edge_1B_4F_Ch_1x1x1,0.09542,0.70836,0.970234,1969.23,1910.62,12.81253,6.27369,82104.72246,,,,2752,,512,512,384,C45Cd3F18H6O13Zn1,0.048780488,6,6c_CdZn_1_Ch,54,O:C(:O)C1=CC2(C=C(C3:C(F):C(F):C(C(:O):O):C(F):C:3F)C1C(=C2)C1:C(F):C(F):C(C(:O):O):C(F):C:1F)C1:C(F):C(F):C(C(:O):O):C(F):C:1F,1
SR_bcu_v1-8c_Co_1_Ch_1B_2CF3_Ch_2x2x2,0.26231,0.49002,1.52563,0,0,5.66812,3.09992,25307.79187,,,,1488,,320,320,256,C40Co4F24H8O17,0.04494382,8,8c_Co_1_Ch,22,O:C(:O)C1:C:C(:C(:C:C:1C(F)(F)F)C(:O):O)C(F)(F)F,1
SR_bcuk_v1-6c_Fe_1_Ch_1B_2CN_Ch_1x1x1,0.24263,0.73478,0.678513,2491.53,1690.53,20.28441,8.60668,97025.4159,,,,2784,,720,720,576,C30Fe3H6N6O13,0.054545455,6,6c_Fe_1_Ch,18,N#CC1:C:C(C(:O):O):C(C#N):C:C:1C(:O):O,1
SR_bcuk_v1-6c_Al_1_Ch_2B_fused_Ch_1x1x1,0.28054,0.82322,0.398232,4239.85,1688.44,27.07347,11.93655,148009.923,,,,3360,,720,720,576,Al3C36H18O13,0.044776119,6,6c_Al_1_Ch,22,O:C(:O)C1:C:C:C2:C:C(:C:C:C:2:C:1)C(:O):O,1
SR_bcuk_v1-6c_Cr_1_Ch_4B_fused_8H_Ch_1x1x1,0.26341,0.8477,0.360205,4265.01,1536.28,30.95161,14.58769,229414.8687,,,,4512,,720,720,576,C54Cr3H24O13,0.032967033,6,6c_Cr_1_Ch,30,O:C(:O)C1:C:C2:C:C:C3:C:C(:C:C4:C:C:C(:C:1):C:2:C:3:4)C(:O):O,1
SR_bcu_v1-8c_Co_2_Ch_2B_4F_Ch_2x1x2,0.29778,0.81074,0.52418,3854.55,2020.48,14.51471,9.84314,50484.88075,,,,1064,,160,160,128,C64Cl1Co4F32H8N24,0.031007752,8,8c_Co_2_Ch,32,FC1:C(F):C(:C(F):C(F):C:1C1C:N:N:N:1)C1:C(F):C(F):C(C2C:N:N:N:2):C(F):C:1F,1
SR_bix_v1-4c_bicyclooctane_Ch_v2-6c_CdZn_1_Ch_v3-6c_CdZn_1_Ch_1B_2CH3_Ch_1x1x1,0.11987,0.77326,0.589092,3391.75,1998.05,13.59593,9.47525,131495.8294,,,,4384,,512,512,384,C66Cd3H54O13Zn1,0.030075188,6,6c_CdZn_1_Ch,88,CC1:C:C(C(:O):O):C(C):C:C:1C1=CC2(C=C(C3:C:C(C):C(:C:C:3C)C(:O):O)C1C(=C2)C1:C:C(C):C(:C:C:1C)C(:O):O)C1:C:C(C):C(:C:C:1C)C(:O):O,1
SR_bcu_v1-8c_Co_1_Ch_2B_2NO2_Ch_2x2x2,0.16594,0.67296,0.866023,2255.94,1953.7,7.65991,5.2979,59317.33451,,,,2256,,320,320,256,C56Co4H16N16O49,0.02919708,8,8c_Co_1_Ch,34,O:C(:O)C1:C:C(:C(:C:C:1N(:O):O)C1:C:C(:C(:C:C:1N(:O):O)C(:O):O)N(:O):O)N(:O):O,1
SR_bcuk_v1-6c_Al_1_Ch_4B_fused_8H_Ch_1x1x1,0.26142,0.84926,0.339121,4545.36,1541.43,31.5044,14.73771,226040.2329,,,,4512,,720,720,576,Al3C54H24O13,0.032967033,6,6c_Al_1_Ch,30,O:C(:O)C1:C:C2:C:C:C3:C:C(:C:C4:C:C:C(:C:1):C:2:C:3:4)C(:O):O,1
SR_bcx_v1-4c_bicyclooctane_Ch_v2-4c_Cd_1_Ch_1B_2OH_Ch_1x1x1,0.05981,0.86806,0.347292,4761.95,1653.79,21.44033,12.34284,70009.81725,,,,1176,,192,192,192,C68Cd3H36O40,0.020833333,4,4c_Cd_1_Ch,"18,126",O:C(:O)C1:C:C(O):C(:C:C:1O)C(:O):O___O:C(:O)C1:C:C(O):C(:C:C:1O)C1=CC2(C=C(C3:C:C(O):C(:C:C:3O)C(:O):O)C1C(=C2)C1:C:C(O):C(:C:C:1O)C(:O):O)C1:C:C(O):C(:C:C:1O)C12C=C(C3:C:C(O):C(:C:C:3O)C(:O):O)C(C(=C1)C1:C:C(O):C(:C:C:1O)C(:O):O)C(=C2)C1:C:C(O):C(:C:C:1O)C(:O):O,1
SR_bcu_v1-8c_Co_1_Ch_1B_2Br_Ch_2x2x2,0.25106,0.55266,1.64068,672.869,1103.97,5.69952,4.08217,24946.99945,,,,1104,,320,320,256,Br8C32Co4H8O17,0.061538462,8,8c_Co_1_Ch,16,O:C(:O)C1:C:C(Br):C(:C:C:1Br)C(:O):O,1
SR_bcuf_v1-3c_Cu_imadazoline_Ch_2B_2F_Ch_1x1x1,0.03131,0.97222,0.0776245,6247.93,484.993,46.0897,35.06933,248168.0745,,,,864,,96,96,96,C9Cu1F2H4N2,0.058823529,3,3c_Cu_imadazoline_Ch,34,FC1:C:C(:C(F):C:C:1C1:C:N:N:C:1)C1:C:C(F):C(:C:C:1F)C1:C:N:N:C:1,1
SR_bcu_v1-8c_Mn_1_Ch_2B_2NH2_Ch_2x2x2,0.16464,0.81596,0.431286,4879.57,2104.49,14.4784,8.84013,101555.6168,,,,2512,,320,320,256,C56Cl1H48Mn4N48,0.026143791,8,8c_Mn_1_Ch,38,NC1:C:C(:C(N):C:C:1C1:N:N:N:N:1)C1:C:C(N):C(:C:C:1N)C1:N:N:N:N:1,1
SR_bcu_v1-8c_Mn_1_Ch_1B_4F_Ch_2x2x2,0.64567,0.73268,0.774624,2563.34,1985.63,12.04412,6.54548,47735.24695,,,,1360,,320,320,256,C32Cl1F16Mn4N32,0.049382716,8,8c_Mn_1_Ch,20,FC1:C(F):C(C2:N:N:N:N:2):C(F):C(F):C:1C1:N:N:N:N:1,1
SR_bcuk_v1-6c_Fe_1_Ch_2B_4Br_Ch_1x1x1,0.13492,0.78838,0.909126,1526.56,1387.84,30.04896,13.85644,245282.1756,,,,3936,,720,720,576,Br24C42Fe3O13,0.037974684,6,6c_Fe_1_Ch,26,O:C(:O)C1:C(Br):C(Br):C(:C(Br):C:1Br)C1:C(Br):C(Br):C(C(:O):O):C(Br):C:1Br,1