name,k,VF,density,ASA_grav,ASA_vol,LPD,PLD,volume,,,,N_atoms,,N_metal_containing_bonds,N_metal_nonmetal_bonds,N_metal_linker_bonds,formula,metal_nonmetal_ratio,metal_node_connectivity,metal_node_name,N_atoms_per_linker,linker_SMILES,N_ccs
SR_eps_v1-3c_B_Ch_v2-8c_Co_2_Ch_v3-4c_porphyrin_Ch_2B_fused_Ch_1x1x1,0.16716,0.89168,0.233808,5866.63,1371.67,31.28525,13.25801,62389.57036,,,,945,,60,60,48,C180Cl1Co4H102N28,0.012861736,8,8c_Co_2_Ch,310,C1:N:N:N:C1C1:C:C:C2:C:C(:C:C:C:2:C:1)C1:C:C(:C:C(:C:1)C1:C:C:C2:C:C(:C:C:C:2:C:1)C1:C2:C:C:C(:N:2):C(C2:C:C:C3:C:C(:C:C:C:3:C:2)C2:C:C(:C:C(:C:2)C2:C:C:C3:C:C(:C:C:C:3:C:2)C2C:N:N:N:2)C2:C:C:C3:C:C(:C:C:C:3:C:2)C2C:N:N:N:2):C2:C:C:C(:[NH]:2):C(C2:C:C:C3:C:C(:C:C:C:3:C:2)C2:C:C(:C:C(:C:2)C2:C:C:C3:C:C(:C:C:C:3:C:2)C2C:N:N:N:2)C2:C:C:C3:C:C(:C:C:C:3:C:2)C2C:N:N:N:2):C2:C:C:C(:N:2):C(C2:C:C:C3:C:C(:C:C:C:3:C:2)C2:C:C(:C:C(:C:2)C2:C:C:C3:C:C(:C:C:C:3:C:2)C2C:N:N:N:2)C2:C:C:C3:C:C(:C:C:C:3:C:2)C2C:N:N:N:2):C2:C:C:C:1:[NH]:2)C1:C:C:C2:C:C(:C:C:C:2:C:1)C1C:N:N:N:1,1
SR_eci_v1-8c_Mn_1_Ch_1TrU_Ch_1x1x1,0.4933,0.7716,0.636673,3408.82,2170.3,11.08354,9.2574,18706.08262,,,,424,,160,160,128,C16Cl1Mn4N32,0.081632653,8,8c_Mn_1_Ch,12,C(#CC1:N:N:N:N:1)C1:N:N:N:N:1,1
SR_dmf_v1-4c_1anC_Ch_v2-3c_Cu_imadazoline_Ch_2B_2CF3_Ch_1x1x1,0.02596,0.91458,0.246662,4947.1,1220.26,20.16375,15.42031,66803.56189,,,,706,,48,48,48,C165Cu12F96H56N24,0.035190616,3,3c_Cu_imadazoline_Ch,"157,46",FC(F)(F)C1:C:C(C2:C:C(:C(:C:C:2C(F)(F)F)C(C2:C:C(:C(:C:C:2C(F)(F)F)C2:C:C(:C(:C:C:2C(F)(F)F)C2:C:N:N:C:2)C(F)(F)F)C(F)(F)F)(C2:C:C(:C(:C:C:2C(F)(F)F)C2:C:C(:C(:C:C:2C(F)(F)F)C2:C:N:N:C:2)C(F)(F)F)C(F)(F)F)C2:C:C(:C(:C:C:2C(F)(F)F)C2:C:C(:C(:C:C:2C(F)(F)F)C2:C:N:N:C:2)C(F)(F)F)C(F)(F)F)C(F)(F)F):C(:C:C:1C1:C:N:N:C:1)C(F)(F)F___FC(F)(F)C1:C:C(C2:C:C(:C(:C:C:2C(F)(F)F)C2:C:N:N:C:2)C(F)(F)F):C(:C:C:1C1:C:N:N:C:1)C(F)(F)F,1
SR_eft_v1-4c_porphyrin_Ch_v2-8c_Zr_1_Ch_v3-3c_pyrrole_Ch_1B_2NH2_Ch_2x2x2,0.12097,0.76876,0.555309,3341.85,1855.76,11.94387,9.30402,75590.90429,,,,2336,,384,384,128,C58H53N16O16Zr3,0.020979021,8,8c_Zr_1_Ch,254,NC1:C:C(:C(N):C:C:1C(:O):O)C1:C:C:C(C2:C:C(N):C(:C:C:2N)C2:C3:C:C:C(:N:3):C(C3:C:C(N):C(:C:C:3N)C3:C:C:C(C4:C:C(N):C(:C:C:4N)C(:O):O):N:3C3:C:C(N):C(:C:C:3N)C(:O):O):C3:C:C:C(:[NH]:3):C(C3:C:C(N):C(:C:C:3N)C3:C:C:C(C4:C:C(N):C(:C:C:4N)C(:O):O):N:3C3:C:C(N):C(:C:C:3N)C(:O):O):C3:C:C:C(:N:3):C(C3:C:C(N):C(:C:C:3N)C3:C:C:C(C4:C:C(N):C(:C:C:4N)C(:O):O):N:3C3:C:C(N):C(:C:C:3N)C(:O):O):C3:C:C:C:2:[NH]:3):N:1C1:C:C(N):C(:C:C:1N)C(:O):O,1
SR_ecv_v1-8c_Co_2_Ch_1TrU_Ch_2x2x1,0.36242,0.73694,0.709618,3033.02,2152.28,10.02159,7.19245,135470.6206,,,,3904,,1280,1280,1024,C24Cl1Co4H8N24,0.070175439,8,8c_Co_2_Ch,14,C(#CC1C:N:N:N:1)C1C:N:N:N:1,1
SR_dpe_v1-6c_Zr_1_Ch_v2-8c_Zr_1_Ch_v3-4c_porphyrin_Ch_1DoU_Ch_1TrU_Ch_1x1x1,0.17237,0.70828,0.869533,2425.39,2108.96,14.29592,4.84538,30139.69673,,,,1062,,528,528,144,C144H166N12O176Zr33,0.06626506,"6,8","6c_Zr_1_Ch,8c_Zr_1_Ch","8,62",O:C(:O)C#CC(:O):O___O:C(:O)C=CC1:C2:C:C:C(:N:2):C(C=CC(:O):O):C2:C:C:C(:[NH]:2):C(C=CC(:O):O):C2:C:C:C(:N:2):C(C=CC(:O):O):C2:C:C:C:1:[NH]:2,1
SR_epa_v1-6c_Mg_1_Ch_v2-6c_B_Ch_v3-4c_B_Ch_2B_1TrU_Ch_1x1x1,0.27076,0.89264,0.217916,6419.19,1398.84,28.69404,14.74585,145381.6327,,,,1710,,270,270,108,C52H28Mg3O12,0.032608696,6,6c_Mg_1_Ch,"156,108",O:C(:O)C1:C:C:C(C#CC2:C:C:C(:C:C:2)C2:C(C3:C:C:C(C#CC4:C:C:C(:C:C:4)C(:O):O):C:C:3):C(C3:C:C:C(C#CC4:C:C:C(:C:C:4)C(:O):O):C:C:3):C(C3:C:C:C(C#CC4:C:C:C(:C:C:4)C(:O):O):C:C:3):C(C3:C:C:C(C#CC4:C:C:C(:C:C:4)C(:O):O):C:C:3):C:2C2:C:C:C(C#CC3:C:C:C(:C:C:3)C(:O):O):C:C:2):C:C:1___O:C(:O)C1:C:C:C(C#CC2:C:C:C(:C:C:2)C2:C:C(C3:C:C:C(C#CC4:C:C:C(:C:C:4)C(:O):O):C:C:3):C(:C:C:2C2:C:C:C(C#CC3:C:C:C(:C:C:3)C(:O):O):C:C:2)C2:C:C:C(C#CC3:C:C:C(:C:C:3)C(:O):O):C:C:2):C:C:1,1
SR_eps_v1-3c_pyrrole_Ch_v2-8c_Co_1_Ch_v3-4c_porphyrin_Ch_1B_2Br_Ch_1x1x1,0.11826,0.74364,0.856414,1903.58,1630.25,20.05875,5.69609,23125.87877,,,,633,,60,60,48,Br24C116Co4H42N8O17,0.019323671,8,8c_Co_1_Ch,206,O:C(:O)C1:C:C(Br):C(:C:C:1Br)C1:C:C:C(C2:C:C(Br):C(:C:C:2Br)C(:O):O):N:1C1:C:C(Br):C(:C:C:1Br)C1:C2:C:C:C(:N:2):C(C2:C:C(Br):C(:C:C:2Br)N2:C(:C:C:C:2C2:C:C(Br):C(:C:C:2Br)C(:O):O)C2:C:C(Br):C(:C:C:2Br)C(:O):O):C2:C:C:C(:[NH]:2):C(C2:C:C(Br):C(:C:C:2Br)N2:C(:C:C:C:2C2:C:C(Br):C(:C:C:2Br)C(:O):O)C2:C:C(Br):C(:C:C:2Br)C(:O):O):C2:C:C:C(:N:2):C(C2:C:C(Br):C(:C:C:2Br)N2:C(:C:C:C:2C2:C:C(Br):C(:C:C:2Br)C(:O):O)C2:C:C(Br):C(:C:C:2Br)C(:O):O):C2:C:C:C:1:[NH]:2,1
SR_dni_v1-8c_Co_1_Ch_v2-3c_triazine_Ch_v3-3c_pyrrole_Ch_1TrU_Ch_1x1x1,0.16868,0.74242,0.653862,2489.22,1627.61,17.98746,4.87176,19088.41994,,,,534,,120,120,96,C52Co4H8N8O17,0.047058824,8,8c_Co_1_Ch,63,O:C(:O)C#CC1:C:C:C(C#CC(:O):O):N:1C#CC1:N:C(C#CN2:C(C#CC(:O):O):C:C:C:2C#CC(:O):O):N:C(C#CN2:C(C#CC(:O):O):C:C:C:2C#CC(:O):O):N:1,1
SR_dnj_v1-8c_Co_1_Ch_v2-6c_B_Ch_v3-3c_triazine_Ch_2B_2Br_Ch_1x1x1,0.05737,0.88092,0.429988,2357.93,1013.88,36.90197,27.38606,152406.6464,,,,1782,,120,120,96,Br48C168Co4H48N12O17,0.013651877,8,8c_Co_1_Ch,438,O:C(:O)C1:C:C(Br):C(:C:C:1Br)C1:C:C(Br):C(:C:C:1Br)C1:N:C(:N:C(:N:1)C1:C:C(Br):C(:C:C:1Br)C1:C:C(Br):C(:C:C:1Br)C1:C(C2:C:C(Br):C(:C:C:2Br)C2:C:C(Br):C(:C:C:2Br)C2:N:C(:N:C(:N:2)C2:C:C(Br):C(:C:C:2Br)C2:C:C(Br):C(:C:C:2Br)C(:O):O)C2:C:C(Br):C(:C:C:2Br)C2:C:C(Br):C(:C:C:2Br)C(:O):O):C(C2:C:C(Br):C(:C:C:2Br)C2:C:C(Br):C(:C:C:2Br)C2:N:C(:N:C(:N:2)C2:C:C(Br):C(:C:C:2Br)C2:C:C(Br):C(:C:C:2Br)C(:O):O)C2:C:C(Br):C(:C:C:2Br)C2:C:C(Br):C(:C:C:2Br)C(:O):O):C(C2:C:C(Br):C(:C:C:2Br)C2:C:C(Br):C(:C:C:2Br)C2:N:C(:N:C(:N:2)C2:C:C(Br):C(:C:C:2Br)C2:C:C(Br):C(:C:C:2Br)C(:O):O)C2:C:C(Br):C(:C:C:2Br)C2:C:C(Br):C(:C:C:2Br)C(:O):O):C(C2:C:C(Br):C(:C:C:2Br)C2:C:C(Br):C(:C:C:2Br)C2:N:C(:N:C(:N:2)C2:C:C(Br):C(:C:C:2Br)C2:C:C(Br):C(:C:C:2Br)C(:O):O)C2:C:C(Br):C(:C:C:2Br)C2:C:C(Br):C(:C:C:2Br)C(:O):O):C:1C1:C:C(Br):C(:C:C:1Br)C1:C:C(Br):C(:C:C:1Br)C1:N:C(:N:C(:N:1)C1:C:C(Br):C(:C:C:1Br)C1:C:C(Br):C(:C:C:1Br)C(:O):O)C1:C:C(Br):C(:C:C:1Br)C1:C:C(Br):C(:C:C:1Br)C(:O):O)C1:C:C(Br):C(:C:C:1Br)C1:C:C(Br):C(:C:C:1Br)C(:O):O,1
SR_dna_v1-8c_Zr_1_Ch_v2-6c_B_Ch_v3-3c_B_Ch_1B_2NH2_Ch_1x1x1,0.08986,0.82654,0.417239,3098.95,1293,35.23248,13.47131,133410.9979,,,,3240,,576,576,192,C54H50N12O16Zr3,0.022727273,8,8c_Zr_1_Ch,348,NC1:C:C(C2:C:C(:C:C(:C:2)C2:C:C(N):C(:C:C:2N)C2:C(C3:C:C(N):C(:C:C:3N)C3:C:C(:C:C(:C:3)C3:C:C(N):C(:C:C:3N)C(:O):O)C3:C:C(N):C(:C:C:3N)C(:O):O):C(C3:C:C(N):C(:C:C:3N)C3:C:C(:C:C(:C:3)C3:C:C(N):C(:C:C:3N)C(:O):O)C3:C:C(N):C(:C:C:3N)C(:O):O):C(C3:C:C(N):C(:C:C:3N)C3:C:C(:C:C(:C:3)C3:C:C(N):C(:C:C:3N)C(:O):O)C3:C:C(N):C(:C:C:3N)C(:O):O):C(C3:C:C(N):C(:C:C:3N)C3:C:C(:C:C(:C:3)C3:C:C(N):C(:C:C:3N)C(:O):O)C3:C:C(N):C(:C:C:3N)C(:O):O):C:2C2:C:C(N):C(:C:C:2N)C2:C:C(:C:C(:C:2)C2:C:C(N):C(:C:C:2N)C(:O):O)C2:C:C(N):C(:C:C:2N)C(:O):O)C2:C:C(N):C(:C:C:2N)C(:O):O):C(N):C:C:1C(:O):O,1
SR_eft_v1-4c_porphyrin_Ch_v2-8c_Zr_1_Ch_v3-3c_pyrrole_Ch_ntn_edge_1B_2NH2_Ch_2x2x2,0.15345,0.67518,0.798924,2286.82,1827,8.6841,6.56358,44230.56703,,,,1888,,384,384,128,C46H41N12O16Zr3,0.026086957,8,8c_Zr_1_Ch,198,NC1:C:C(:C(N):C:C:1C(:O):O)C1:C:C:C(C2:C3:C:C:C(:N:3):C(C3:C:C:C(C4:C:C(N):C(:C:C:4N)C(:O):O):N:3C3:C:C(N):C(:C:C:3N)C(:O):O):C3:C:C:C(:[NH]:3):C(C3:C:C:C(C4:C:C(N):C(:C:C:4N)C(:O):O):N:3C3:C:C(N):C(:C:C:3N)C(:O):O):C3:C:C:C(:N:3):C(C3:C:C:C(C4:C:C(N):C(:C:C:4N)C(:O):O):N:3C3:C:C(N):C(:C:C:3N)C(:O):O):C3:C:C:C:2:[NH]:3):N:1C1:C:C(N):C(:C:C:1N)C(:O):O,1
SR_eft_v1-4c_porphyrin_Ch_v2-8c_Co_2_Ch_v3-3c_B_Ch_1B_2SH_Ch_ntn_edge_2x2x3,0.24588,0.76234,0.565449,3741.23,2115.48,12.39251,10.1767,69612.32695,,,,2052,,240,240,192,C84Cl1Co4H46N28S8,0.023952096,8,8c_Co_2_Ch,166,SC1:C:C(:C(S):C:C:1C1:C:C(:C:C(:C:1)C1C:N:N:N:1)C1C:N:N:N:1)C1:C2:C:C:C(:N:2):C(C2:C:C(S):C(:C:C:2S)C2:C:C(:C:C(:C:2)C2C:N:N:N:2)C2C:N:N:N:2):C2:C:C:C(:[NH]:2):C(C2:C:C(S):C(:C:C:2S)C2:C:C(:C:C(:C:2)C2C:N:N:N:2)C2C:N:N:N:2):C2:C:C:C(:N:2):C(C2:C:C(S):C(:C:C:2S)C2:C:C(:C:C(:C:2)C2C:N:N:N:2)C2C:N:N:N:2):C2:C:C:C:1:[NH]:2,1
SR_epo_v1-3c_triazine_Ch_v2-6c_Ni_1_Ch_v3-4c_Ni_1_Ch_1B_4F_Ch_ntn_edge_1x1x1,0.15784,0.54576,1.42397,635.126,904.4,9.40918,6.91256,13363.88096,,,,676,,198,192,144,C72F24H4N18Ni11O40,0.069620253,"4,6","4c_Ni_1_Ch,6c_Ni_1_Ch",25,O:C(:O)C1:N:C(:N:C(:N:1)C1:C(F):C(F):C(C(:O):O):C(F):C:1F)C(:O):O,1
SR_eps_v1-3c_pyrrole_Ch_v2-8c_Mn_1_Ch_v3-4c_porphyrin_Ch_1TrU_Ch_ntn_edge_1x1x1,0.26085,0.79384,0.503378,3412.31,1717.68,20.15543,10.96417,15462.06603,,,,369,,60,60,48,C60Cl1H18Mn4N40,0.033613445,8,8c_Mn_1_Ch,118,C(#CC1:C:C:C(C#CC2:N:N:N:N:2):N:1C1:C2:C:C:C(:N:2):C(:C2:C:C:C(:[NH]:2):C(:C2:C:C:C(:N:2):C(:C2:C:C:C:1:[NH]:2)N1:C(C#CC2:N:N:N:N:2):C:C:C:1C#CC1:N:N:N:N:1)N1:C(C#CC2:N:N:N:N:2):C:C:C:1C#CC1:N:N:N:N:1)N1:C(C#CC2:N:N:N:N:2):C:C:C:1C#CC1:N:N:N:N:1)C1:N:N:N:N:1,1
SR_epa_v1-6c_Mg_1_Ch_v2-6c_Mg_1_Ch_v3-4c_B_Ch_3B_fused_8H_Ch_1x1x1,0.41178,0.86436,0.288012,5185.75,1493.56,24.59402,12.81359,122296.3794,,,,1836,,360,360,144,C53H29Mg4O16,0.040816327,6,6c_Mg_1_Ch,"28,108",O:C(:O)C1:C:C:C2:C(:C:C:C3:C:C(:C:C:C:3:2)C(:O):O):C:1___O:C(:O)C1:C:C:C2:C(:C:C:C3:C:C(:C:C:C:3:2)C2:C:C(C3:C:C:C4:C(:C:C:C5:C:C(:C:C:C:5:4)C(:O):O):C:3):C(:C:C:2C2:C:C:C3:C(:C:C:C4:C:C(:C:C:C:4:3)C(:O):O):C:2)C2:C:C:C3:C(:C:C:C4:C:C(:C:C:C:4:3)C(:O):O):C:2):C:1,1
SR_eps_v1-3c_triazine_Ch_v2-8c_Zr_1_Ch_v3-4c_porphyrin_Ch_2B_2SH_Ch_1x1x1,0.04618,0.8832,0.285979,4631.42,1324.49,35.83238,12.49171,89807.95799,,,,1224,,144,144,48,C92H61N8O16S24Zr3,0.014925373,8,8c_Zr_1_Ch,370,O:C(:O)C1:C:C(S):C(:C:C:1S)C1:C:C(S):C(:C:C:1S)C1:N:C(:N:C(:N:1)C1:C:C(S):C(:C:C:1S)C1:C:C(S):C(:C:C:1S)C1:C2:C:C:C(:N:2):C(C2:C:C(S):C(:C:C:2S)C2:C:C(S):C(:C:C:2S)C2:N:C(:N:C(:N:2)C2:C:C(S):C(:C:C:2S)C2:C:C(S):C(:C:C:2S)C(:O):O)C2:C:C(S):C(:C:C:2S)C2:C:C(S):C(:C:C:2S)C(:O):O):C2:C:C:C(:[NH]:2):C(C2:C:C(S):C(:C:C:2S)C2:C:C(S):C(:C:C:2S)C2:N:C(:N:C(:N:2)C2:C:C(S):C(:C:C:2S)C2:C:C(S):C(:C:C:2S)C(:O):O)C2:C:C(S):C(:C:C:2S)C2:C:C(S):C(:C:C:2S)C(:O):O):C2:C:C:C(:N:2):C(C2:C:C(S):C(:C:C:2S)C2:C:C(S):C(:C:C:2S)C2:N:C(:N:C(:N:2)C2:C:C(S):C(:C:C:2S)C2:C:C(S):C(:C:C:2S)C(:O):O)C2:C:C(S):C(:C:C:2S)C2:C:C(S):C(:C:C:2S)C(:O):O):C2:C:C:C:1:[NH]:2)C1:C:C(S):C(:C:C:1S)C1:C:C(S):C(:C:C:1S)C(:O):O,1
SR_epa_v1-6c_Mg_1_Ch_v2-6c_Mg_1_Ch_v3-4c_B_Ch_2TrU_Ch_1TrU_Ch_1x1x1,0.54229,0.82978,0.380055,5063.08,1924.25,17.51264,10.1566,55500.64553,,,,828,,360,360,144,C21H5Mg4O16,0.095238095,6,6c_Mg_1_Ch,"36,8",O:C(:O)C#CC#CC1:C:C(C#CC#CC(:O):O):C(C#CC#CC(:O):O):C:C:1C#CC#CC(:O):O___O:C(:O)C#CC(:O):O,1
SR_epa_v1-6c_Mg_1_Ch_v2-6c_B_Ch_v3-4c_pyrene_Ch_1B_2DoU_Ch_1x1x1,0.25395,0.87358,0.253434,6294.67,1595.28,24.56883,13.44515,113997.6994,,,,1620,,270,270,108,C15H10Mg1O4,0.034482759,6,6c_Mg_1_Ch,"132,106",O:C(:O)C=CC1:C:C:C(C=CC2:C(C=CC3:C:C:C(C=CC(:O):O):C:C:3):C(C=CC3:C:C:C(C=CC(:O):O):C:C:3):C(C=CC3:C:C:C(C=CC(:O):O):C:C:3):C(C=CC3:C:C:C(C=CC(:O):O):C:C:3):C:2C=CC2:C:C:C(C=CC(:O):O):C:C:2):C:C:1___O:C(:O)C=CC1:C:C:C(C=CC2:C:C(C=CC3:C:C:C(C=CC(:O):O):C:C:3):C3:C:C:C4:C(C=CC5:C:C:C(C=CC(:O):O):C:C:5):C:C(C=CC5:C:C:C(C=CC(:O):O):C:C:5):C5:C:C:C:2:C:3:C:5:4):C:C:1,1
SR_dna_v1-8c_Co_1_Ch_v2-6c_B_Ch_v3-3c_B_Ch_1TrU_Ch_ntn_edge_1x1x1,0.18008,0.73874,0.670646,2422.12,1624.39,21.56055,8.75209,34027.27368,,,,1020,,240,240,192,C52Co4H12O17,0.049382716,8,8c_Co_1_Ch,120,O:C(:O)C#CC1:C:C(C#CC(:O):O):C:C(:C:1)C1:C(C2:C:C(C#CC(:O):O):C:C(C#CC(:O):O):C:2):C(C2:C:C(C#CC(:O):O):C:C(C#CC(:O):O):C:2):C(C2:C:C(C#CC(:O):O):C:C(C#CC(:O):O):C:2):C(C2:C:C(C#CC(:O):O):C:C(C#CC(:O):O):C:2):C:1C1:C:C(C#CC(:O):O):C:C(C#CC(:O):O):C:1,1
SR_epo_v1-3c_B_Ch_v2-6c_CdZn_1_Ch_v3-4c_porphyrin_Ch_ntn_edge_1x1x1,0.14491,0.69102,0.97132,1740.99,1691.06,13.01719,8.19851,15570.14922,,,,604,,128,128,96,C78Cd6H33N6O26Zn2,0.055944056,6,6c_CdZn_1_Ch,94,O:C(:O)C1:C:C(:C:C(:C:1)C1:C2:C:C:C(:N:2):C(C2:C:C(:C:C(:C:2)C(:O):O)C(:O):O):C2:C:C:C(:[NH]:2):C(C2:C:C(:C:C(:C:2)C(:O):O)C(:O):O):C2:C:C:C(:N:2):C(C2:C:C(:C:C(:C:2)C(:O):O)C(:O):O):C2:C:C:C:1:[NH]:2)C(:O):O,1
SR_eci_v1-8c_Zr_1_Ch_1B_2OH_Ch_2x1x1,0.12601,0.63846,1.07128,1435.24,1537.54,10.21078,5.59054,41171.19005,,,,1760,,768,768,256,C16H16O20Zr3,0.057692308,8,8c_Zr_1_Ch,18,O:C(:O)C1:C:C(O):C(:C:C:1O)C(:O):O,1
SR_dtc_v1-4c_bicyclooctane_Ch_v2-4c_In_1_Ch_v3-4c_1anC_Ch_2B_2SH_Ch_ntn_edge_1x1x1,0.05162,0.89828,0.23463,4803.47,1127.04,61.55568,60.23475,220653.7894,,,,2224,,96,96,96,C283H172In3O24S74,0.005424955,4,4c_In_1_Ch,,None,1
SR_dnj_v1-8c_Co_1_Ch_v2-6c_B_Ch_v3-3c_B_Ch_2B_4Br_Ch_1x1x1,0.05163,0.8438,0.668303,1562.92,1044.51,36.70113,25.24433,154354.9097,,,,1854,,120,120,96,Br96C180Co4H12O17,0.013114754,8,8c_Co_1_Ch,456,O:C(:O)C1:C(Br):C(Br):C(:C(Br):C:1Br)C1:C(Br):C(Br):C(C2:C:C(:C:C(:C:2)C2:C(Br):C(Br):C(:C(Br):C:2Br)C2:C(Br):C(Br):C(:C(Br):C:2Br)C2:C(C3:C(Br):C(Br):C(:C(Br):C:3Br)C3:C(Br):C(Br):C(C4:C:C(:C:C(:C:4)C4:C(Br):C(Br):C(:C(Br):C:4Br)C4:C(Br):C(Br):C(C(:O):O):C(Br):C:4Br)C4:C(Br):C(Br):C(:C(Br):C:4Br)C4:C(Br):C(Br):C(C(:O):O):C(Br):C:4Br):C(Br):C:3Br):C(C3:C(Br):C(Br):C(:C(Br):C:3Br)C3:C(Br):C(Br):C(C4:C:C(:C:C(:C:4)C4:C(Br):C(Br):C(:C(Br):C:4Br)C4:C(Br):C(Br):C(C(:O):O):C(Br):C:4Br)C4:C(Br):C(Br):C(:C(Br):C:4Br)C4:C(Br):C(Br):C(C(:O):O):C(Br):C:4Br):C(Br):C:3Br):C(C3:C(Br):C(Br):C(:C(Br):C:3Br)C3:C(Br):C(Br):C(C4:C:C(:C:C(:C:4)C4:C(Br):C(Br):C(:C(Br):C:4Br)C4:C(Br):C(Br):C(C(:O):O):C(Br):C:4Br)C4:C(Br):C(Br):C(:C(Br):C:4Br)C4:C(Br):C(Br):C(C(:O):O):C(Br):C:4Br):C(Br):C:3Br):C(C3:C(Br):C(Br):C(:C(Br):C:3Br)C3:C(Br):C(Br):C(C4:C:C(:C:C(:C:4)C4:C(Br):C(Br):C(:C(Br):C:4Br)C4:C(Br):C(Br):C(C(:O):O):C(Br):C:4Br)C4:C(Br):C(Br):C(:C(Br):C:4Br)C4:C(Br):C(Br):C(C(:O):O):C(Br):C:4Br):C(Br):C:3Br):C:2C2:C(Br):C(Br):C(:C(Br):C:2Br)C2:C(Br):C(Br):C(C3:C:C(:C:C(:C:3)C3:C(Br):C(Br):C(:C(Br):C:3Br)C3:C(Br):C(Br):C(C(:O):O):C(Br):C:3Br)C3:C(Br):C(Br):C(:C(Br):C:3Br)C3:C(Br):C(Br):C(C(:O):O):C(Br):C:3Br):C(Br):C:2Br)C2:C(Br):C(Br):C(:C(Br):C:2Br)C2:C(Br):C(Br):C(C(:O):O):C(Br):C:2Br):C(Br):C:1Br,1
SR_dnj_v1-8c_Co_1_Ch_v2-6c_B_Ch_v3-3c_triazine_Ch_2B_2F_Ch_1x1x1,0.0699,0.90196,0.246148,4099.99,1009.21,38.43232,28.24293,147907.8611,,,,1782,,120,120,96,C168Co4F48H48N12O17,0.013651877,8,8c_Co_1_Ch,438,O:C(:O)C1:C:C(F):C(:C:C:1F)C1:C:C(F):C(:C:C:1F)C1:N:C(:N:C(:N:1)C1:C:C(F):C(:C:C:1F)C1:C:C(F):C(:C:C:1F)C1:C(C2:C:C(F):C(:C:C:2F)C2:C:C(F):C(:C:C:2F)C2:N:C(:N:C(:N:2)C2:C:C(F):C(:C:C:2F)C2:C:C(F):C(:C:C:2F)C(:O):O)C2:C:C(F):C(:C:C:2F)C2:C:C(F):C(:C:C:2F)C(:O):O):C(C2:C:C(F):C(:C:C:2F)C2:C:C(F):C(:C:C:2F)C2:N:C(:N:C(:N:2)C2:C:C(F):C(:C:C:2F)C2:C:C(F):C(:C:C:2F)C(:O):O)C2:C:C(F):C(:C:C:2F)C2:C:C(F):C(:C:C:2F)C(:O):O):C(C2:C:C(F):C(:C:C:2F)C2:C:C(F):C(:C:C:2F)C2:N:C(:N:C(:N:2)C2:C:C(F):C(:C:C:2F)C2:C:C(F):C(:C:C:2F)C(:O):O)C2:C:C(F):C(:C:C:2F)C2:C:C(F):C(:C:C:2F)C(:O):O):C(C2:C:C(F):C(:C:C:2F)C2:C:C(F):C(:C:C:2F)C2:N:C(:N:C(:N:2)C2:C:C(F):C(:C:C:2F)C2:C:C(F):C(:C:C:2F)C(:O):O)C2:C:C(F):C(:C:C:2F)C2:C:C(F):C(:C:C:2F)C(:O):O):C:1C1:C:C(F):C(:C:C:1F)C1:C:C(F):C(:C:C:1F)C1:N:C(:N:C(:N:1)C1:C:C(F):C(:C:C:1F)C1:C:C(F):C(:C:C:1F)C(:O):O)C1:C:C(F):C(:C:C:1F)C1:C:C(F):C(:C:C:1F)C(:O):O)C1:C:C(F):C(:C:C:1F)C1:C:C(F):C(:C:C:1F)C(:O):O,1
SR_dni_v1-8c_Co_1_Ch_v2-3c_triazine_Ch_v3-3c_triazine_Ch_2B_2NO2_Ch_1x1x1,0.0667,0.86582,0.336153,4057.05,1363.79,37.19327,10.73663,148392.1166,,,,2382,,120,120,96,C168Co4H48N64O113,0.010178117,8,8c_Co_1_Ch,294,O:C(:O)C1:C:C(:C(:C:C:1N(:O):O)C1:C:C(:C(:C:C:1N(:O):O)C1:N:C(:N:C(:N:1)C1:C:C(:C(:C:C:1N(:O):O)C1:C:C(:C(:C:C:1N(:O):O)C1:N:C(:N:C(:N:1)C1:C:C(:C(:C:C:1N(:O):O)C1:C:C(:C(:C:C:1N(:O):O)C1:N:C(:N:C(:N:1)C1:C:C(:C(:C:C:1N(:O):O)C1:C:C(:C(:C:C:1N(:O):O)C(:O):O)N(:O):O)N(:O):O)C1:C:C(:C(:C:C:1N(:O):O)C1:C:C(:C(:C:C:1N(:O):O)C(:O):O)N(:O):O)N(:O):O)N(:O):O)N(:O):O)C1:C:C(:C(:C:C:1N(:O):O)C1:C:C(:C(:C:C:1N(:O):O)C1:N:C(:N:C(:N:1)C1:C:C(:C(:C:C:1N(:O):O)C1:C:C(:C(:C:C:1N(:O):O)C(:O):O)N(:O):O)N(:O):O)C1:C:C(:C(:C:C:1N(:O):O)C1:C:C(:C(:C:C:1N(:O):O)C(:O):O)N(:O):O)N(:O):O)N(:O):O)N(:O):O)N(:O):O)N(:O):O)C1:C:C(:C(:C:C:1N(:O):O)C1:C:C(:C(:C:C:1N(:O):O)C(:O):O)N(:O):O)N(:O):O)N(:O):O)N(:O):O,1
SR_dmg_v1-3c_Cu_imadazoline_Ch_v2-4c_bicyclooctane_Ch_v3-3c_pyrrole_Ch_1TrU_Ch_1DoU_Ch_ntn_edge_3x2x1,0.20417,0.78686,0.560864,4265.52,2392.37,11.41319,10.36554,25134.62317,,,,624,,72,72,72,C26Cu3H16N7,0.06122449,3,3c_Cu_imadazoline_Ch,"252,14",C1#CC2:C:C:C3C4=CC5(C=CC6:C:N:N:C:6)C=C(C=CC6:C:N:N:C:6)C4C(=C5)C4:C:C:C(C#CC5:C:C:C6C7=CC8(C=CC9:C:N:N:C:9)C=C(C=CC9:C:N:N:C:9)C7C(=C8)C7:C:C:C(C#CC8:C:C:C9C%10=CC%11(C=CC%12:C:N:N:C:%12)C=C(C=CC%12:C:N:N:C:%12)C%10C(=C%11)C%10:C:C:C1:N:%10C1=CC%10(C=CC%11:C:N:N:C:%11)C=C(C=CC%11:C:N:N:C:%11)C1C(=C%10)N:8:9):N:7C1=CC7(C=CC8:C:N:N:C:8)C=C(C=CC8:C:N:N:C:8)C1C(=C7)N:5:6):N:4C1=CC4(C=CC5:C:N:N:C:5)C=C(C=CC5:C:N:N:C:5)C1C(=C4)N:2:3___C1:N:N:C:C:1C1:C:N:N:C:1,1
SR_dpa_v1-3c_B_Ch_v2-3c_B_Ch_v3-6c_Mg_1_Ch_ntn_edge_1B_2OH_Ch_1x1x1,0.23383,0.63456,0.823292,1676.07,1379.9,7.29702,4.27428,42102.11076,,,,1920,,480,480,192,C9H5Mg1O5,0.052631579,6,6c_Mg_1_Ch,90,O:C(:O)C1:C:C(:C:C(:C:1)C1:C:C(O):C(:C:C:1O)C1:C:C(:C:C(:C:1)C1:C:C(O):C(:C:C:1O)C1:C:C(:C:C(:C:1)C(:O):O)C(:O):O)C1:C:C(O):C(:C:C:1O)C1:C:C(:C:C(:C:1)C(:O):O)C(:O):O)C(:O):O,1
SR_epe_v1-4c_Ni_1_Ch_v2-3c_pyrrole_Ch_v3-4c_porphyrin_Ch_ntn_edge_1TrU_Ch_1x1x1,0.17169,0.918,0.204287,4462.5,911.63,45.15894,18.00593,130863.3728,,,,1272,,216,192,192,C30H9N4Ni2O8,0.039215686,4,4c_Ni_1_Ch,102,O:C(:O)C#CC1:C:C:C(C#CC(:O):O):N:1C1:C2:C:C:C(:N:2):C(:C2:C:C:C(:[NH]:2):C(:C2:C:C:C(:N:2):C(:C2:C:C:C:1:[NH]:2)N1:C(C#CC(:O):O):C:C:C:1C#CC(:O):O)N1:C(C#CC(:O):O):C:C:C:1C#CC(:O):O)N1:C(C#CC(:O):O):C:C:C:1C#CC(:O):O,1
SR_dnl_v1-4c_porphyrin_Ch_v2-6c_CdZn_1_Ch_v3-3c_triazine_Ch_1B_2TrU_Ch_1x1x1,0.09856,0.92466,0.170606,7145.68,1219.09,25.83809,17.40904,505746.6189,,,,4880,,256,256,192,C192Cd3H78N18O13Zn1,0.013289037,6,6c_CdZn_1_Ch,,None,1
SR_dpe_v1-6c_Zr_1_Ch_v2-8c_Zr_1_Ch_v3-4c_porphyrin_Ch_1B_2NO2_Ch_1x1x1,0.08861,0.69784,0.859596,2069.96,1779.33,17.17452,5.66021,43568.64558,,,,1590,,528,528,144,C240H190N60O272Zr33,0.043307087,"6,8","6c_Zr_1_Ch,8c_Zr_1_Ch","20,102",O:C(:O)C1:C:C(:C(:C:C:1N(:O):O)C(:O):O)N(:O):O___O:C(:O)C1:C:C(:C(:C:C:1N(:O):O)C1:C2:C:C:C(:N:2):C(C2:C:C(:C(:C:C:2N(:O):O)C(:O):O)N(:O):O):C2:C:C:C(:[NH]:2):C(C2:C:C(:C(:C:C:2N(:O):O)C(:O):O)N(:O):O):C2:C:C:C(:N:2):C(C2:C:C(:C(:C:C:2N(:O):O)C(:O):O)N(:O):O):C2:C:C:C:1:[NH]:2)N(:O):O,1
SR_dna_v1-8c_Zr_1_Ch_v2-6c_B_Ch_v3-3c_B_Ch_1B_2CF3_Ch_1x1x1,0.07732,0.78216,0.605453,2066.85,1251.38,33.97493,13.34398,133799.5198,,,,3528,,576,576,192,C66F36H26O16Zr3,0.020833333,8,8c_Zr_1_Ch,384,O:C(:O)C1:C:C(:C(:C:C:1C(F)(F)F)C1:C:C(:C:C(:C:1)C1:C:C(:C(:C:C:1C(F)(F)F)C1:C(C2:C:C(:C(:C:C:2C(F)(F)F)C2:C:C(:C:C(:C:2)C2:C:C(:C(:C:C:2C(F)(F)F)C(:O):O)C(F)(F)F)C2:C:C(:C(:C:C:2C(F)(F)F)C(:O):O)C(F)(F)F)C(F)(F)F):C(C2:C:C(:C(:C:C:2C(F)(F)F)C2:C:C(:C:C(:C:2)C2:C:C(:C(:C:C:2C(F)(F)F)C(:O):O)C(F)(F)F)C2:C:C(:C(:C:C:2C(F)(F)F)C(:O):O)C(F)(F)F)C(F)(F)F):C(C2:C:C(:C(:C:C:2C(F)(F)F)C2:C:C(:C:C(:C:2)C2:C:C(:C(:C:C:2C(F)(F)F)C(:O):O)C(F)(F)F)C2:C:C(:C(:C:C:2C(F)(F)F)C(:O):O)C(F)(F)F)C(F)(F)F):C(C2:C:C(:C(:C:C:2C(F)(F)F)C2:C:C(:C:C(:C:2)C2:C:C(:C(:C:C:2C(F)(F)F)C(:O):O)C(F)(F)F)C2:C:C(:C(:C:C:2C(F)(F)F)C(:O):O)C(F)(F)F)C(F)(F)F):C:1C1:C:C(:C(:C:C:1C(F)(F)F)C1:C:C(:C:C(:C:1)C1:C:C(:C(:C:C:1C(F)(F)F)C(:O):O)C(F)(F)F)C1:C:C(:C(:C:C:1C(F)(F)F)C(:O):O)C(F)(F)F)C(F)(F)F)C(F)(F)F)C1:C:C(:C(:C:C:1C(F)(F)F)C(:O):O)C(F)(F)F)C(F)(F)F,1
SR_eps_v1-3c_pyrrole_Ch_v2-8c_Zr_1_Ch_v3-4c_porphyrin_Ch_1B_2OH_Ch_1x1x1,0.09828,0.81294,0.474018,3312.94,1570.4,24.86966,7.94447,31857.42529,,,,804,,144,144,48,C58H41N4O28Zr3,0.022900763,8,8c_Zr_1_Ch,230,O:C(:O)C1:C:C(O):C(:C:C:1O)C1:C:C:C(C2:C:C(O):C(:C:C:2O)C(:O):O):N:1C1:C:C(O):C(:C:C:1O)C1:C2:C:C:C(:N:2):C(C2:C:C(O):C(:C:C:2O)N2:C(:C:C:C:2C2:C:C(O):C(:C:C:2O)C(:O):O)C2:C:C(O):C(:C:C:2O)C(:O):O):C2:C:C:C(:[NH]:2):C(C2:C:C(O):C(:C:C:2O)N2:C(:C:C:C:2C2:C:C(O):C(:C:C:2O)C(:O):O)C2:C:C(O):C(:C:C:2O)C(:O):O):C2:C:C:C(:N:2):C(C2:C:C(O):C(:C:C:2O)N2:C(:C:C:C:2C2:C:C(O):C(:C:C:2O)C(:O):O)C2:C:C(O):C(:C:C:2O)C(:O):O):C2:C:C:C:1:[NH]:2,1