name,k,VF,density,ASA_grav,ASA_vol,LPD,PLD,volume,,,,N_atoms,,N_metal_containing_bonds,N_metal_nonmetal_bonds,N_metal_linker_bonds,formula,metal_nonmetal_ratio,metal_node_connectivity,metal_node_name,N_atoms_per_linker,linker_SMILES,N_ccs
SR_eab_v1-4c_Cd_1_Ch_v2-4c_Cd_1_Ch_ntn_edge_1B_2furan_Ch_1x1x1,0.06257,0.91692,0.236325,5056.89,1195.07,28.89184,18.47467,148941.3137,,,,1236,,288,288,288,C52Cd3H16O32,0.03,4,4c_Cd_1_Ch,"6,22",O:C(:O)C(:O):O___O:C(:O)C1:C:C2:C:C3:O:C(:C:C:3:C:C:2:O:1)C(:O):O,1
SR_epq_v1-4c_Ni_1_Ch_v2-6c_B_Ch_v3-3c_triazine_Ch_2B_2CH3_Ch_1x1x1,0.11531,0.84964,0.295054,4060.26,1198,35.85758,18.43001,112604.2252,,,,2592,,108,96,96,C54H48N1Ni1O4,0.009345794,4,4c_Ni_1_Ch,,None,1
SR_epc_v1-6c_Cr_1_Ch_v2-4c_1anC_Ch_v3-4c_B_Ch_1B_2NH2_Ch_1x1x1,0.18707,0.73024,0.633178,2502,1584.21,16.80351,9.62706,24189.41012,,,,916,,120,120,96,C97Cr6H76N24O26,0.02690583,6,6c_Cr_1_Ch,"69,76",NC1:C:C(:C(N):C:C:1C(:O):O)C(C1:C:C(N):C(:C:C:1N)C(:O):O)(C1:C:C(N):C(:C:C:1N)C(:O):O)C1:C:C(N):C(:C:C:1N)C(:O):O___NC1:C:C(:C(N):C:C:1C(:O):O)C1:C:C(C2:C:C(N):C(:C:C:2N)C(:O):O):C(:C:C:1C1:C:C(N):C(:C:C:1N)C(:O):O)C1:C:C(N):C(:C:C:1N)C(:O):O,1
SR_dnl_v1-4c_porphyrin_Ch_v2-6c_CdZn_1_Ch_v3-3c_triazine_Ch_1B_2CF3_Ch_1x1x1,0.10248,0.7531,0.66826,2951.5,1972.37,14.90384,7.55611,171078.4496,,,,5264,,256,256,192,C168Cd3F72H54N18O13Zn1,0.012307692,6,6c_CdZn_1_Ch,,None,1
SR_dpd_v1-4c_1anC_Ch_v2-4c_V_1_Ch_v3-4c_1anC_Ch_1B_2CF3_Ch_ntn_edge_1x1x1,0.249,0.52028,1.46872,0,0,10.39993,3.10961,15758.31406,,,,888,,216,192,192,C49F24H8O24V6,0.057142857,4,4c_V_1_Ch,105,O:C(:O)C(C(:O):O)(C(:O):O)C1:C:C(:C(:C:C:1C(F)(F)F)C(C1:C:C(:C(:C:C:1C(F)(F)F)C(C(:O):O)(C(:O):O)C(:O):O)C(F)(F)F)(C1:C:C(:C(:C:C:1C(F)(F)F)C(C(:O):O)(C(:O):O)C(:O):O)C(F)(F)F)C1:C:C(:C(:C:C:1C(F)(F)F)C(C(:O):O)(C(:O):O)C(:O):O)C(F)(F)F)C(F)(F)F,1
SR_eps_v1-3c_triazine_Ch_v2-8c_Co_1_Ch_v3-4c_porphyrin_Ch_1B_4F_Ch_1x1x1,0.11675,0.77182,0.625318,2869.26,1794.2,19.08696,8.02568,23901.39783,,,,621,,60,60,48,C112Co4F48H10N16O17,0.019704433,8,8c_Co_1_Ch,202,O:C(:O)C1:C(F):C(F):C(C2:N:C(:N:C(:N:2)C2:C(F):C(F):C(:C(F):C:2F)C2:C3:C:C:C(:N:3):C(C3:C(F):C(F):C(C4:N:C(:N:C(:N:4)C4:C(F):C(F):C(C(:O):O):C(F):C:4F)C4:C(F):C(F):C(C(:O):O):C(F):C:4F):C(F):C:3F):C3:C:C:C(:[NH]:3):C(C3:C(F):C(F):C(C4:N:C(:N:C(:N:4)C4:C(F):C(F):C(C(:O):O):C(F):C:4F)C4:C(F):C(F):C(C(:O):O):C(F):C:4F):C(F):C:3F):C3:C:C:C(:N:3):C(C3:C(F):C(F):C(C4:N:C(:N:C(:N:4)C4:C(F):C(F):C(C(:O):O):C(F):C:4F)C4:C(F):C(F):C(C(:O):O):C(F):C:4F):C(F):C:3F):C3:C:C:C:2:[NH]:3)C2:C(F):C(F):C(C(:O):O):C(F):C:2F):C(F):C:1F,1
SR_dni_v1-8c_Co_1_Ch_v2-3c_triazine_Ch_v3-3c_B_Ch_ntn_edge_1B_2NO2_Ch_1x1x1,0.15205,0.7048,0.744491,1815.86,1351.89,18.37954,3.69573,31277.59396,,,,1110,,120,120,96,C84Co4H28N20O49,0.022099448,8,8c_Co_1_Ch,135,O:C(:O)C1:C:C(:C(:C:C:1N(:O):O)C1:C:C(:C:C(:C:1)C1:C:C(:C(:C:C:1N(:O):O)C(:O):O)N(:O):O)C1:N:C(:N:C(:N:1)C1:C:C(:C:C(:C:1)C1:C:C(:C(:C:C:1N(:O):O)C(:O):O)N(:O):O)C1:C:C(:C(:C:C:1N(:O):O)C(:O):O)N(:O):O)C1:C:C(:C:C(:C:1)C1:C:C(:C(:C:C:1N(:O):O)C(:O):O)N(:O):O)C1:C:C(:C(:C:C:1N(:O):O)C(:O):O)N(:O):O)N(:O):O,1
SR_eps_v1-3c_triazine_Ch_v2-8c_Co_2_Ch_v3-4c_porphyrin_Ch_2B_4Br_Ch_1x1x1,0.06521,0.86112,0.572109,2328.32,1332.05,34.17344,13.09571,94271.69605,,,,1053,,60,60,48,Br96C192Cl1Co4H18N40,0.011527378,8,8c_Co_2_Ch,346,BrC1:C(Br):C(:C(Br):C(Br):C:1C1C:N:N:N:1)C1:C(Br):C(Br):C(C2:N:C(:N:C(:N:2)C2:C(Br):C(Br):C(:C(Br):C:2Br)C2:C(Br):C(Br):C(:C(Br):C:2Br)C2:C3:C:C:C(:N:3):C(C3:C(Br):C(Br):C(:C(Br):C:3Br)C3:C(Br):C(Br):C(C4:N:C(:N:C(:N:4)C4:C(Br):C(Br):C(:C(Br):C:4Br)C4:C(Br):C(Br):C(C5C:N:N:N:5):C(Br):C:4Br)C4:C(Br):C(Br):C(:C(Br):C:4Br)C4:C(Br):C(Br):C(C5C:N:N:N:5):C(Br):C:4Br):C(Br):C:3Br):C3:C:C:C(:[NH]:3):C(C3:C(Br):C(Br):C(:C(Br):C:3Br)C3:C(Br):C(Br):C(C4:N:C(:N:C(:N:4)C4:C(Br):C(Br):C(:C(Br):C:4Br)C4:C(Br):C(Br):C(C5C:N:N:N:5):C(Br):C:4Br)C4:C(Br):C(Br):C(:C(Br):C:4Br)C4:C(Br):C(Br):C(C5C:N:N:N:5):C(Br):C:4Br):C(Br):C:3Br):C3:C:C:C(:N:3):C(C3:C(Br):C(Br):C(:C(Br):C:3Br)C3:C(Br):C(Br):C(C4:N:C(:N:C(:N:4)C4:C(Br):C(Br):C(:C(Br):C:4Br)C4:C(Br):C(Br):C(C5C:N:N:N:5):C(Br):C:4Br)C4:C(Br):C(Br):C(:C(Br):C:4Br)C4:C(Br):C(Br):C(C5C:N:N:N:5):C(Br):C:4Br):C(Br):C:3Br):C3:C:C:C:2:[NH]:3)C2:C(Br):C(Br):C(:C(Br):C:2Br)C2:C(Br):C(Br):C(C3C:N:N:N:3):C(Br):C:2Br):C(Br):C:1Br,1
SR_dni_v1-8c_Co_1_Ch_v2-3c_triazine_Ch_v3-3c_triazine_Ch_ntn_edge_1B_2CF3_Ch_1x1x1,0.1451,0.68528,0.884268,1557.44,1377.19,16.58788,4.36477,30611.30636,,,,1134,,120,120,96,C88Co4F48H16N16O17,0.021621622,8,8c_Co_1_Ch,138,O:C(:O)C1:C:C(:C(:C:C:1C(F)(F)F)C1:N:C(:N:C(:N:1)C1:C:C(:C(:C:C:1C(F)(F)F)C(:O):O)C(F)(F)F)C1:N:C(:N:C(:N:1)C1:N:C(:N:C(:N:1)C1:C:C(:C(:C:C:1C(F)(F)F)C(:O):O)C(F)(F)F)C1:C:C(:C(:C:C:1C(F)(F)F)C(:O):O)C(F)(F)F)C1:N:C(:N:C(:N:1)C1:C:C(:C(:C:C:1C(F)(F)F)C(:O):O)C(F)(F)F)C1:C:C(:C(:C:C:1C(F)(F)F)C(:O):O)C(F)(F)F)C(F)(F)F,1
SR_dnj_v1-8c_Co_1_Ch_v2-6c_B_Ch_v3-3c_pyrrole_Ch_1B_2Br_Ch_ntn_edge_1x1x1,0.16774,0.62856,1.26384,1106.13,1397.97,13.20948,8.67097,21932.85014,,,,846,,120,120,96,Br16C76Co4H24N4O17,0.02919708,8,8c_Co_1_Ch,204,O:C(:O)C1:C:C(Br):C(:C:C:1Br)C1:C:C:C(C2:C:C(Br):C(:C:C:2Br)C(:O):O):N:1C1:C(:C(:C(:C(:C:1N1:C(:C:C:C:1C1:C:C(Br):C(:C:C:1Br)C(:O):O)C1:C:C(Br):C(:C:C:1Br)C(:O):O)N1:C(:C:C:C:1C1:C:C(Br):C(:C:C:1Br)C(:O):O)C1:C:C(Br):C(:C:C:1Br)C(:O):O)N1:C(:C:C:C:1C1:C:C(Br):C(:C:C:1Br)C(:O):O)C1:C:C(Br):C(:C:C:1Br)C(:O):O)N1:C(:C:C:C:1C1:C:C(Br):C(:C:C:1Br)C(:O):O)C1:C:C(Br):C(:C:C:1Br)C(:O):O)N1:C(:C:C:C:1C1:C:C(Br):C(:C:C:1Br)C(:O):O)C1:C:C(Br):C(:C:C:1Br)C(:O):O,1
SR_dni_v1-8c_Co_1_Ch_v2-3c_triazine_Ch_v3-3c_triazine_Ch_2TrU_Ch_1TrU_Ch_1x1x1,0.10455,0.8489,0.384788,4629.1,1781.22,23.95799,7.10074,36365.18103,,,,558,,120,120,96,C56Co4N16O17,0.04494382,8,8c_Co_1_Ch,66,O:C(:O)C#CC1:N:C(C#CC#CC2:N:C(C#CC#CC3:N:C(C#CC(:O):O):N:C(C#CC(:O):O):N:3):N:C(C#CC#CC3:N:C(C#CC(:O):O):N:C(C#CC(:O):O):N:3):N:2):N:C(C#CC(:O):O):N:1,1
SR_dni_v1-8c_Co_1_Ch_v2-3c_triazine_Ch_v3-3c_B_Ch_1B_4H_Ch_1DoU_Ch_1x1x1,0.1598,0.8129,0.422786,4198.26,1774.96,24.86892,6.92182,40577.29743,,,,1014,,120,120,96,C92Co4H52N4O17,0.024242424,8,8c_Co_1_Ch,123,O:C(:O)C1:C:C:C(:C:C:1)C1:C:C(C=CC2:N:C(C=CC3:C:C(:C:C(:C:3)C3:C:C:C(:C:C:3)C(:O):O)C3:C:C:C(:C:C:3)C(:O):O):N:C(C=CC3:C:C(:C:C(:C:3)C3:C:C:C(:C:C:3)C(:O):O)C3:C:C:C(:C:C:3)C(:O):O):N:2):C:C(:C:1)C1:C:C:C(:C:C:1)C(:O):O,1
SR_eri_v1-4c_Cd_1_Ch_v2-4c_1anC_Ch_2B_4F_Ch_1x1x1,0.04519,0.90446,0.276197,4507.47,1244.95,30.50996,17.47588,202866.0878,,,,1764,,192,192,192,C81Cd2F48O16,0.013793103,4,4c_Cd_1_Ch,"402,26",O:C(:O)C1:C(F):C(F):C(:C(F):C:1F)C1:C(F):C(F):C(:C(F):C:1F)C1(C2:C(F):C(F):C(:C(F):C:2F)C2:C(F):C(F):C(C(:O):O):C(F):C:2F)C2:C(F):C(F):C(:C(F):C:2F)C2:C(F):C(F):C(:C(F):C:2F)C(C2:C(F):C(F):C(:C(F):C:2F)C2:C(F):C(F):C(C(:O):O):C(F):C:2F)(C2:C(F):C(F):C(:C(F):C:2F)C2:C(F):C(F):C(C(:O):O):C(F):C:2F)C2:C(F):C(F):C(:C(F):C:2F)C2:C(F):C(F):C(:C(F):C:2F)C(C2:C(F):C(F):C(:C(F):C:2F)C2:C(F):C(F):C(C(:O):O):C(F):C:2F)(C2:C(F):C(F):C(:C(F):C:2F)C2:C(F):C(F):C(C(:O):O):C(F):C:2F)C2:C(F):C(F):C(:C(F):C:2F)C2:C(F):C(F):C(:C(F):C:2F)C(C2:C(F):C(F):C(:C(F):C:2F)C2:C(F):C(F):C(C(:O):O):C(F):C:2F)(C2:C(F):C(F):C(:C(F):C:2F)C2:C(F):C(F):C(C(:O):O):C(F):C:2F)C2:C(F):C(F):C(:C(F):C:2F)C2:C(F):C(F):C(:C(F):C:2F)C(C2:C(F):C(F):C(:C(F):C:2F)C2:C(F):C(F):C(C(:O):O):C(F):C:2F)(C2:C(F):C(F):C(:C(F):C:2F)C2:C(F):C(F):C(C(:O):O):C(F):C:2F)C2:C(F):C(F):C(:C(F):C:2F)C2:C(F):C(F):C(:C(F):C:2F)C(C2:C(F):C(F):C(:C(F):C:2F)C2:C(F):C(F):C(C(:O):O):C(F):C:2F)(C2:C(F):C(F):C(:C(F):C:2F)C2:C(F):C(F):C(C(:O):O):C(F):C:2F)C2:C(F):C(F):C(:C(F):C:2F)C2:C(F):C(F):C1:C(F):C:2F___O:C(:O)C1:C(F):C(F):C(:C(F):C:1F)C1:C(F):C(F):C(C(:O):O):C(F):C:1F,1
SR_eci_v1-8c_Co_2_Ch_1B_2CN_Ch_1x1x1,0.34687,0.72302,0.684633,2955.26,2023.27,11.12272,7.73183,25468.02543,,,,808,,160,160,128,C48Cl1Co4H16N32,0.041237113,8,8c_Co_2_Ch,24,N#CC1:C:C(C2C:N:N:N:2):C(C#N):C:C:1C1C:N:N:N:1,1
SR_eri_v1-4c_In_1_Ch_v2-4c_1anC_Ch_1B_2CN_Ch_1x1x1,0.07766,0.77948,0.565269,3351.85,1894.7,16.10081,8.98378,55587.64769,,,,1188,,192,192,192,C57H12In2N12O16,0.020618557,4,4c_In_1_Ch,"258,18",N#CC1:C:C(:C(C#N):C:C:1C(:O):O)C1(C2:C:C(C#N):C(:C:C:2C#N)C(:O):O)C2:C:C(C#N):C(:C:C:2C#N)C(C2:C:C(C#N):C(:C:C:2C#N)C(:O):O)(C2:C:C(C#N):C(:C:C:2C#N)C(:O):O)C2:C:C(C#N):C(:C:C:2C#N)C(C2:C:C(C#N):C(:C:C:2C#N)C(:O):O)(C2:C:C(C#N):C(:C:C:2C#N)C(:O):O)C2:C:C(C#N):C(:C:C:2C#N)C(C2:C:C(C#N):C(:C:C:2C#N)C(:O):O)(C2:C:C(C#N):C(:C:C:2C#N)C(:O):O)C2:C:C(C#N):C(:C:C:2C#N)C(C2:C:C(C#N):C(:C:C:2C#N)C(:O):O)(C2:C:C(C#N):C(:C:C:2C#N)C(:O):O)C2:C:C(C#N):C(:C:C:2C#N)C(C2:C:C(C#N):C(:C:C:2C#N)C(:O):O)(C2:C:C(C#N):C(:C:C:2C#N)C(:O):O)C2:C:C(C#N):C1:C:C:2C#N___N#CC1:C:C(C(:O):O):C(C#N):C:C:1C(:O):O,1
SR_dtc_v1-4c_1anC_Ch_v2-4c_Cd_1_Ch_v3-4c_1anC_Ch_1B_2F_Ch_ntn_edge_1x1x2,0.10409,0.79194,0.554835,2576.35,1429.45,32.88253,30.90706,83479.04151,,,,1848,,192,192,192,C130Cd3F37H37O24,0.013157895,4,4c_Cd_1_Ch,"6,90,464",O:C(:O)C(:O):O___O:C(:O)C1:C:C(F):C(:C:C:1F)C(C1:C:C(F):C(:C:C:1F)C(:O):O)(C1:C:C(F):C(:C:C:1F)C(:O):O)C1:C:C(F):C(:C:C:1F)C(C1:C:C(F):C(:C:C:1F)C(:O):O)(C1:C:C(F):C(:C:C:1F)C(:O):O)C1:C:C(F):C(:C:C:1F)C(:O):O___O:C(:O)C1:C:C(F):C(:C:C:1F)C12C3:C:C(F):C(:C:C:3F)C3(C4:C:C(F):C(:C:C:4F)C(:O):O)C4:C:C(F):C(:C:C:4F)C4(C5:C:C(F):C(:C:C:5F)C(:O):O)C5:C:C(F):C(:C:C:5F)C(C5:C:C(F):C(:C:C:5F)C(:O):O)(C5:C:C(F):C1:C:C:5F)C1:C:C(F):C(:C:C:1F)C1(C5:C:C(F):C(:C:C:5F)C(:O):O)C5:C:C(F):C(:C:C:5F)C(C5:C:C(F):C(:C:C:5F)C(:O):O)(C5:C:C(F):C4:C:C:5F)C4:C:C(F):C(:C:C:4F)C4(C5:C:C(F):C(:C:C:5F)C(:O):O)C5:C:C(F):C(:C:C:5F)C(C5:C:C(F):C(:C:C:5F)C(:O):O)(C5:C:C(F):C1:C:C:5F)C1:C:C(F):C(:C:C:1F)C1(C5:C:C(F):C(:C:C:5F)C(:O):O)C5:C:C(F):C(:C:C:5F)C5(C6:C:C(F):C(:C:C:6F)C(:O):O)C6:C:C(F):C(:C:C:6F)C6(C7:C:C(F):C(:C:C:7F)C(:O):O)C7:C:C(F):C(:C:C:7F)C(C7:C:C(F):C(:C:C:7F)C(:O):O)(C7:C:C(F):C2:C:C:7F)C2:C:C(F):C(:C:C:2F)C(C2:C:C(F):C(:C:C:2F)C(:O):O)(C2:C:C(F):C3:C:C:2F)C2:C:C(F):C(:C:C:2F)C(C2:C:C(F):C(:C:C:2F)C(:O):O)(C2:C:C(F):C6:C:C:2F)C2:C:C(F):C(:C:C:2F)C(C2:C:C(F):C(:C:C:2F)C(:O):O)(C2:C:C(F):C5:C:C:2F)C2:C:C(F):C(:C:C:2F)C(C2:C:C(F):C(:C:C:2F)C(:O):O)(C2:C:C(F):C4:C:C:2F)C2:C:C(F):C1:C:C:2F,1
SR_epa_v1-6c_Mg_1_Ch_v2-6c_Mg_1_Ch_v3-4c_pyrene_Ch_1B_2NH2_Ch_1x1x1,0.13444,0.79798,0.441421,4013.09,1771.47,18.39369,9.23688,68157.63381,,,,1530,,360,360,144,C34H25Mg4N6O16,0.049382716,6,6c_Mg_1_Ch,"90,20",NC1:C:C(:C(N):C:C:1C(:O):O)C1:C:C(C2:C:C(N):C(:C:C:2N)C(:O):O):C2:C:C:C3:C(:C:C(C4:C:C(N):C(:C:C:4N)C(:O):O):C4:C:C:C:1:C:2:C:4:3)C1:C:C(N):C(:C:C:1N)C(:O):O___NC1:C:C(C(:O):O):C(N):C:C:1C(:O):O,1
SR_epa_v1-6c_Mg_1_Ch_v2-6c_B_Ch_v3-4c_B_Ch_1B_2furan_Ch_1x1x1,0.23632,0.8425,0.357352,4956.99,1771.39,22.25958,11.87152,82897.6464,,,,1386,,270,270,108,C40H16Mg3O18,0.040540541,6,6c_Mg_1_Ch,"120,84",O:C(:O)C1:C:C2:C:C3:O:C(:C:C:3:C:C:2:O:1)C1:C(C2:C:C3:C:C4:O:C(:C:C:4:C:C:3:O:2)C(:O):O):C(C2:C:C3:C:C4:O:C(:C:C:4:C:C:3:O:2)C(:O):O):C(C2:C:C3:C:C4:O:C(:C:C:4:C:C:3:O:2)C(:O):O):C(C2:C:C3:C:C4:O:C(:C:C:4:C:C:3:O:2)C(:O):O):C:1C1:C:C2:C:C3:O:C(:C:C:3:C:C:2:O:1)C(:O):O___O:C(:O)C1:C:C2:C:C3:O:C(:C:C:3:C:C:2:O:1)C1:C:C(C2:C:C3:C:C4:O:C(:C:C:4:C:C:3:O:2)C(:O):O):C(:C:C:1C1:C:C2:C:C3:O:C(:C:C:3:C:C:2:O:1)C(:O):O)C1:C:C2:C:C3:O:C(:C:C:3:C:C:2:O:1)C(:O):O,1
SR_dpd_v1-4c_bicyclooctane_Ch_v2-4c_Cu_1_Ch_v3-4c_bicyclooctane_Ch_ntn_edge_1B_4Br_Ch_1x1x1,0.14,0.57234,1.71251,0,0,12.20136,3.32155,47403.72595,,,,1776,,216,192,192,Br24C62Cu3H10O12,0.027777778,4,4c_Cu_1_Ch,216,O:C(:O)C1:C(Br):C(Br):C(C2=CC3(C=C(C4=CC5(C=C(C6=CC7(C=C(C8:C(Br):C(Br):C(C(:O):O):C(Br):C:8Br)C6C(=C7)C6:C(Br):C(Br):C(C(:O):O):C(Br):C:6Br)C6:C(Br):C(Br):C(C(:O):O):C(Br):C:6Br)C4C(=C5)C4=CC5(C=C(C6:C(Br):C(Br):C(C(:O):O):C(Br):C:6Br)C4C(=C5)C4:C(Br):C(Br):C(C(:O):O):C(Br):C:4Br)C4:C(Br):C(Br):C(C(:O):O):C(Br):C:4Br)C4=CC5(C=C(C6:C(Br):C(Br):C(C(:O):O):C(Br):C:6Br)C4C(=C5)C4:C(Br):C(Br):C(C(:O):O):C(Br):C:4Br)C4:C(Br):C(Br):C(C(:O):O):C(Br):C:4Br)C2C(=C3)C2:C(Br):C(Br):C(C(:O):O):C(Br):C:2Br)C2:C(Br):C(Br):C(C(:O):O):C(Br):C:2Br):C(Br):C:1Br,1
SR_dpa_v1-3c_Cu_imadazoline_Ch_v2-3c_B_Ch_v3-6c_B_Ch_1B_2F_Ch_1x1x1,0.1557,0.81858,0.504321,4830.14,2435.94,13.14812,7.87465,122345.4449,,,,2832,,288,288,288,C31Cu3F6H13N6,0.053571429,3,3c_Cu_imadazoline_Ch,"108,60",FC1:C:C(:C(F):C:C:1C1:C:N:N:C:1)C1:C(C2:C:C(F):C(:C:C:2F)C2:C:N:N:C:2):C(C2:C:C(F):C(:C:C:2F)C2:C:N:N:C:2):C(C2:C:C(F):C(:C:C:2F)C2:C:N:N:C:2):C(C2:C:C(F):C(:C:C:2F)C2:C:N:N:C:2):C:1C1:C:C(F):C(:C:C:1F)C1:C:N:N:C:1___FC1:C:C(C2:C:C(:C:C(:C:2)C2:C:C(F):C(:C:C:2F)C2:C:N:N:C:2)C2:C:C(F):C(:C:C:2F)C2:C:N:N:C:2):C(F):C:C:1C1:C:N:N:C:1,1
SR_dnr_v1-4c_ethene_Ch_v2-4c_Ni_1_Ch_v3-3c_B_Ch_1B_2CH3_Ch_1x1x2,0.12337,0.86768,0.280396,5295.34,1484.79,35.40421,34.49259,90355.8556,,,,1548,,108,96,96,C65H54Ni2O8,0.015748031,4,4c_Ni_1_Ch,254,CC1:C:C(C2:C:C(:C:C(:C:2)C2:C:C(C):C(:C:C:2C)C(:O):O)C2:C:C(C):C(:C:C:2C)C(:O):O):C(C):C:C:1C(=C(C1:C:C(C):C(:C:C:1C)C1:C:C(:C:C(:C:1)C1:C:C(C):C(:C:C:1C)C(:O):O)C1:C:C(C):C(:C:C:1C)C(:O):O)C1:C:C(C):C(:C:C:1C)C1:C:C(:C:C(:C:1)C1:C:C(C):C(:C:C:1C)C(:O):O)C1:C:C(C):C(:C:C:1C)C(:O):O)C1:C:C(C):C(:C:C:1C)C1:C:C(:C:C(:C:1)C1:C:C(C):C(:C:C:1C)C(:O):O)C1:C:C(C):C(:C:C:1C)C(:O):O,1
SR_dnl_v1-4c_porphyrin_Ch_v2-6c_Ni_1_Ch_v3-3c_triazine_Ch_1B_2CH3_Ch_ntn_edge_1x1x1,0.21004,0.57152,0.954874,1112.6,1062.39,8.16181,4.662,62151.07224,,,,3776,,288,288,192,C60H40N9Ni2O7,0.017241379,6,6c_Ni_1_Ch,"456,456",CC1:C:C2:C(C):C:C:1C1:N:C3:N:C(:N:1)C1:C:C(C):C(:C:C:1C)C1:C4:C:C:C(:N:4):C(C(:O):O):C4:C:C:C(:[NH]:4):C(C(:O):O):C4:C:C:C(:N:4):C(C4:C:C(C):C(:C:C:4C)C4:N:C5:N:C(:N:4)C4:C:C(C):C(:C:C:4C)C4:C6:C:C:C(:N:6):C(C(:O):O):C6:C:C:C(:[NH]:6):C(C(:O):O):C6:C:C:C(:N:6):C(C6:C:C(C):C(:C:C:6C)C6:N:C(:N:C(:N:6)C6:C:C(C):C(:C:C:6C)C6:C7:C:C:C(:N:7):C(C(:O):O):C7:C:C:C(:[NH]:7):C(C(:O):O):C7:C:C:C(:N:7):C(C7:C:C(C):C(:C:C:7C)C7:N:C(:N:C(:N:7)C7:C:C(C):C(:C:C:7C)C7:C8:C:C:C(:N:8):C(C(:O):O):C8:C:C:C(:[NH]:8):C(C(:O):O):C8:C:C:C(:N:8):C(C8:C:C(C):C5:C:C:8C):C5:C:C:C:7:[NH]:5)C5:C:C(C):C(:C:C:5C)C5:C7:C:C:C(:N:7):C(C(:O):O):C7:C:C:C(:[NH]:7):C(C(:O):O):C7:C:C:C(:N:7):C2:C2:C:C:C:5:[NH]:2):C2:C:C:C:6:[NH]:2)C2:C:C(C):C(:C:C:2C)C2:C5:C:C:C(:N:5):C(C(:O):O):C5:C:C:C(:[NH]:5):C(C(:O):O):C5:C:C:C(:N:5):C(C5:C:C(C):C3:C:C:5C):C3:C:C:C:2:[NH]:3):C2:C:C:C:4:[NH]:2):C2:C:C:C:1:[NH]:2___CC1:C:C2:C(C):C:C:1C1:N:C3:N:C(:N:1)C1:C:C(C):C(:C:C:1C)C1:C4:C:C:C(:N:4):C(C(:O):O):C4:C:C:C(:[NH]:4):C(C(:O):O):C4:C:C:C(:N:4):C(C4:C:C(C):C(:C:C:4C)C4:N:C5:N:C(:N:4)C4:C:C(C):C(:C:C:4C)C4:C6:C:C:C(:N:6):C(C(:O):O):C6:C:C:C(:[NH]:6):C(C(:O):O):C6:C:C:C(:N:6):C(C6:C:C(C):C(:C:C:6C)C6:N:C(:N:C(:N:6)C6:C:C(C):C(:C:C:6C)C6:C7:C:C:C(:N:7):C(C(:O):O):C7:C:C:C(:[NH]:7):C(C(:O):O):C7:C:C:C(:N:7):C(C7:C:C(C):C(:C:C:7C)C7:N:C(:N:C(:N:7)C7:C:C(C):C(:C:C:7C)C7:C8:C:C:C(:N:8):C(C(:O):O):C8:C:C:C(:[NH]:8):C(C(:O):O):C8:C:C:C(:N:8):C(C8:C:C(C):C5:C:C:8C):C5:C:C:C:7:[NH]:5)C5:C:C(C):C(:C:C:5C)C5:C7:C:C:C(:N:7):C2:C2:C:C:C(:[NH]:2):C(C(:O):O):C2:C:C:C(:N:2):C(C(:O):O):C2:C:C:C:5:[NH]:2):C2:C:C:C:6:[NH]:2)C2:C:C(C):C(:C:C:2C)C2:C5:C:C:C(:N:5):C(C(:O):O):C5:C:C:C(:[NH]:5):C(C(:O):O):C5:C:C:C(:N:5):C(C5:C:C(C):C3:C:C:5C):C3:C:C:C:2:[NH]:3):C2:C:C:C:4:[NH]:2):C2:C:C:C:1:[NH]:2,1
SR_eps_v1-3c_pyrrole_Ch_v2-8c_Co_1_Ch_v3-4c_porphyrin_Ch_ntn_edge_1B_2SH_Ch_1x1x1,0.15338,0.7267,0.668997,2358.45,1577.79,17.82639,6.62671,17083.0147,,,,561,,60,60,48,C92Co4H50N8O17S16,0.021857923,8,8c_Co_1_Ch,182,O:C(:O)C1:C:C(S):C(:C:C:1S)C1:C:C:C(C2:C:C(S):C(:C:C:2S)C(:O):O):N:1C1:C2:C:C:C(:N:2):C(:C2:C:C:C(:[NH]:2):C(:C2:C:C:C(:N:2):C(:C2:C:C:C:1:[NH]:2)N1:C(:C:C:C:1C1:C:C(S):C(:C:C:1S)C(:O):O)C1:C:C(S):C(:C:C:1S)C(:O):O)N1:C(:C:C:C:1C1:C:C(S):C(:C:C:1S)C(:O):O)C1:C:C(S):C(:C:C:1S)C(:O):O)N1:C(:C:C:C:1C1:C:C(S):C(:C:C:1S)C(:O):O)C1:C:C(S):C(:C:C:1S)C(:O):O,1
SR_eps_v1-3c_B_Ch_v2-8c_Mn_1_Ch_v3-4c_porphyrin_Ch_2B_2NO2_Ch_1x1x1,0.08692,0.88324,0.278783,4885.26,1361.93,33.91944,14.20939,96358.15237,,,,1353,,60,60,48,C196Cl1H70Mn4N84O96,0.008948546,8,8c_Mn_1_Ch,446,O:N(:O)C1:C:C(C2:C:C(:C(:C:C:2N(:O):O)C2:N:N:N:N:2)N(:O):O):C(:C:C:1C1:C:C(:C:C(:C:1)C1:C:C(:C(:C:C:1N(:O):O)C1:C:C(:C(:C:C:1N(:O):O)C1:C2:C:C:C(:N:2):C(C2:C:C(:C(:C:C:2N(:O):O)C2:C:C(:C(:C:C:2N(:O):O)C2:C:C(:C:C(:C:2)C2:C:C(:C(:C:C:2N(:O):O)C2:C:C(:C(:C:C:2N(:O):O)C2:N:N:N:N:2)N(:O):O)N(:O):O)C2:C:C(:C(:C:C:2N(:O):O)C2:C:C(:C(:C:C:2N(:O):O)C2:N:N:N:N:2)N(:O):O)N(:O):O)N(:O):O)N(:O):O):C2:C:C:C(:[NH]:2):C(C2:C:C(:C(:C:C:2N(:O):O)C2:C:C(:C(:C:C:2N(:O):O)C2:C:C(:C:C(:C:2)C2:C:C(:C(:C:C:2N(:O):O)C2:C:C(:C(:C:C:2N(:O):O)C2:N:N:N:N:2)N(:O):O)N(:O):O)C2:C:C(:C(:C:C:2N(:O):O)C2:C:C(:C(:C:C:2N(:O):O)C2:N:N:N:N:2)N(:O):O)N(:O):O)N(:O):O)N(:O):O):C2:C:C:C(:N:2):C(C2:C:C(:C(:C:C:2N(:O):O)C2:C:C(:C(:C:C:2N(:O):O)C2:C:C(:C:C(:C:2)C2:C:C(:C(:C:C:2N(:O):O)C2:C:C(:C(:C:C:2N(:O):O)C2:N:N:N:N:2)N(:O):O)N(:O):O)C2:C:C(:C(:C:C:2N(:O):O)C2:C:C(:C(:C:C:2N(:O):O)C2:N:N:N:N:2)N(:O):O)N(:O):O)N(:O):O)N(:O):O):C2:C:C:C:1:[NH]:2)N(:O):O)N(:O):O)C1:C:C(:C(:C:C:1N(:O):O)C1:C:C(:C(:C:C:1N(:O):O)C1:N:N:N:N:1)N(:O):O)N(:O):O)N(:O):O,1
SR_epo_v1-3c_pyrrole_Ch_v2-6c_Ni_1_Ch_v3-4c_Ni_1_Ch_1B_2Br_Ch_ntn_edge_1x1x1,0.1767,0.5304,1.62018,608.741,986.271,8.54416,5.25328,13524.79403,,,,700,,198,192,144,Br12C78H28N6Ni11O40,0.067073171,"4,6","4c_Ni_1_Ch,6c_Ni_1_Ch",26,O:C(:O)C1:C:C(Br):C(:C:C:1Br)N1:C(:C:C:C:1C(:O):O)C(:O):O,1
SR_dnl_v1-4c_porphyrin_Ch_v2-6c_CdZn_1_Ch_v3-3c_triazine_Ch_1B_2NO2_Ch_ntn_edge_1x1x1,0.14218,0.62762,0.968043,1361.88,1318.36,9.767,6.30228,75598.07438,,,,3536,,256,256,192,C108Cd3H42N30O37Zn1,0.01843318,6,6c_CdZn_1_Ch,432,O:C(:O)C1:C2:C:C:C(:N:2):C2C3:C:C(:C(:C:C:3N(:O):O)C3:N:C4:N:C(:N:3)C3:C:C(:C(:C:C:3N(:O):O)C3:C5:C:C:C(:N:5):C(C(:O):O):C5:C:C:C(:[NH]:5):C(C(:O):O):C5:C:C:C(:N:5):C(C5:C:C(:C(:C:C:5N(:O):O)C5:N:C6:N:C(:N:5)C5:C:C(:C(:C:C:5N(:O):O)C5:C7:C:C:C(:N:7):C(C(:O):O):C7:C:C:C(:[NH]:7):C(C(:O):O):C7:C:C:C(:N:7):C(C7:C:C(:C(:C:C:7N(:O):O)C7:N:C(:N:C(:N:7)C7:C:C(:C(:C:C:7N(:O):O)C7:C8:C:C:C(:N:8):C(C(:O):O):C8:C:C:C(:[NH]:8):C(C(:O):O):C8:C:C:C(:N:8):C(C8:C:C(:C(:C:C:8N(:O):O)C8:N:C(:N:C(:N:8)C8:C:C(:C(:C:C:8N(:O):O)C8:C9:C:C:C(:N:9):C(C(:O):O):C9:C:C:C(:[NH]:9):C(C(:O):O):C9:C:C:C(:N:9):C(C9:C:C(:C6:C:C:9N(:O):O)N(:O):O):C6:C:C:C:8:[NH]:6)N(:O):O)C6:C:C(:C(:C:C:6N(:O):O)C(:C6:C:C:C(:N:6):C(C(:O):O):C6:C:C:C:1:[NH]:6):C1:C:C:C:2:[NH]:1)N(:O):O)N(:O):O):C1:C:C:C:7:[NH]:1)N(:O):O)C1:C:C(:C(:C:C:1N(:O):O)C1:C2:C:C:C(:N:2):C(C(:O):O):C2:C:C:C(:[NH]:2):C(C(:O):O):C2:C:C:C(:N:2):C(C2:C:C(:C4:C:C:2N(:O):O)N(:O):O):C2:C:C:C:1:[NH]:2)N(:O):O)N(:O):O):C1:C:C:C:5:[NH]:1)N(:O):O)N(:O):O):C1:C:C:C:3:[NH]:1)N(:O):O)N(:O):O,1
SR_epe_v1-4c_Ni_1_Ch_v2-3c_pyrrole_Ch_v3-4c_porphyrin_Ch_1B_2OH_Ch_1x1x1,0.07301,0.91798,0.193453,4433.95,857.76,49.06299,25.04436,252009.6963,,,,2808,,216,192,192,C58H33N4Ni2O20,0.017391304,4,4c_Ni_1_Ch,230,O:C(:O)C1:C:C(O):C(:C:C:1O)C1:C:C:C(C2:C:C(O):C(:C:C:2O)C(:O):O):N:1C1:C:C(O):C(:C:C:1O)C1:C2:C:C:C(:N:2):C(C2:C:C(O):C(:C:C:2O)N2:C(:C:C:C:2C2:C:C(O):C(:C:C:2O)C(:O):O)C2:C:C(O):C(:C:C:2O)C(:O):O):C2:C:C:C(:[NH]:2):C(C2:C:C(O):C(:C:C:2O)N2:C(:C:C:C:2C2:C:C(O):C(:C:C:2O)C(:O):O)C2:C:C(O):C(:C:C:2O)C(:O):O):C2:C:C:C(:N:2):C(C2:C:C(O):C(:C:C:2O)N2:C(:C:C:C:2C2:C:C(O):C(:C:C:2O)C(:O):O)C2:C:C(O):C(:C:C:2O)C(:O):O):C2:C:C:C:1:[NH]:2,1
SR_dpb_v1-3c_B_Ch_v2-6c_Mg_1_Ch_v3-3c_B_Ch_ntn_edge_1B_4F_Ch_1x1x1,0.26548,0.81046,0.467236,4036.79,1886.13,18.53593,10.09418,212521.5449,,,,4608,,960,960,384,C12F4H3Mg1O4,0.043478261,6,6c_Mg_1_Ch,114,O:C(:O)C1:C(F):C(F):C(C2:C:C(:C:C(:C:2)C2:C(F):C(F):C(C(:O):O):C(F):C:2F)C2:C:C(:C:C(:C:2)C2:C:C(:C:C(:C:2)C2:C(F):C(F):C(C(:O):O):C(F):C:2F)C2:C(F):C(F):C(C(:O):O):C(F):C:2F)C2:C:C(:C:C(:C:2)C2:C(F):C(F):C(C(:O):O):C(F):C:2F)C2:C(F):C(F):C(C(:O):O):C(F):C:2F):C(F):C:1F,1
SR_epa_v1-6c_Mg_1_Ch_v2-6c_Mg_1_Ch_v3-4c_pyrene_Ch_ntn_edge_1DoU_Ch_2x2x1,0.33002,0.73962,0.588547,3399.1,2000.53,14.74679,8.66876,141753.0071,,,,3672,,1440,1440,576,C20H11Mg4O16,0.085106383,6,6c_Mg_1_Ch,"6,50",O:C(:O)C(:O):O___O:C(:O)C=CC1:C:C(C=CC(:O):O):C2:C:C:C3:C(C=CC(:O):O):C:C(C=CC(:O):O):C4:C:C:C:1:C:2:C:4:3,1
SR_epa_v1-6c_Mg_1_Ch_v2-6c_Mg_1_Ch_v3-4c_B_Ch_1B_2F_Ch_1x1x1,0.27626,0.7726,0.541065,3412.93,1846.62,16.42298,6.98561,52854.6252,,,,1188,,360,360,144,C29F6H11Mg4O16,0.064516129,6,6c_Mg_1_Ch,"16,60",O:C(:O)C1:C:C(F):C(:C:C:1F)C(:O):O___O:C(:O)C1:C:C(F):C(:C:C:1F)C1:C:C(C2:C:C(F):C(:C:C:2F)C(:O):O):C(:C:C:1C1:C:C(F):C(:C:C:1F)C(:O):O)C1:C:C(F):C(:C:C:1F)C(:O):O,1