name,k,VF,density,ASA_grav,ASA_vol,LPD,PLD,volume,,,,N_atoms,,N_metal_containing_bonds,N_metal_nonmetal_bonds,N_metal_linker_bonds,formula,metal_nonmetal_ratio,metal_node_connectivity,metal_node_name,N_atoms_per_linker,linker_SMILES,N_ccs
SR_ete_v1-3c_triazine_Ch_v2-3c_Cu_imadazoline_Ch_2B_2F_Ch_1x1x1,0.03721,0.9686,0.0835861,6285.26,525.361,37.08828,31.18335,157977.436,,,,540,,36,36,36,C16Cu1F4H6N3,0.034482759,3,3c_Cu_imadazoline_Ch,"34,140",FC1:C:C(:C(F):C:C:1C1:C:N:N:C:1)C1:C:C(F):C(:C:C:1F)C1:C:N:N:C:1___FC1:C:C(:C(F):C:C:1C1:C:N:N:C:1)C1:C:C(F):C(:C:C:1F)C1:N:C(:N:C(:N:1)C1:C:C(F):C(:C:C:1F)C1:C:C(F):C(:C:C:1F)C1:N:C(:N:C(:N:1)C1:C:C(F):C(:C:C:1F)C1:C:C(F):C(:C:C:1F)C1:C:N:N:C:1)C1:C:C(F):C(:C:C:1F)C1:C:C(F):C(:C:C:1F)C1:C:N:N:C:1)C1:C:C(F):C(:C:C:1F)C1:C:C(F):C(:C:C:1F)C1:C:N:N:C:1,1
SR_kle_v1-3c_triazine_Ch_v2-12c_Zr_1_Ch_v3-3c_triazine_Ch_ntn_edge_2B_2CN_Ch_1x1x1,0.24504,0.44864,1.48361,0,0,5.43803,2.44317,21787.03564,,,,1296,,384,384,192,C39H8N15O16Zr3,0.038461538,12,12c_Zr_1_Ch,48,N#CC1:C:C(:C(C#N):C:C:1C1:N:C(:N:C(:N:1)C(:O):O)C(:O):O)C1:C:C(C#N):C(:C:C:1C#N)C1:N:C(:N:C(:N:1)C(:O):O)C(:O):O,1
SR_idp_v1-4c_Ni_1_Ch_v2-3c_triazine_Ch_v3-6c_Ni_1_Ch_1B_2F_Ch_1x1x1,0.14029,0.83714,0.452928,4121.12,1866.57,23.38219,8.9849,58579.15314,,,,1156,,198,192,144,C144F36H40N18Ni11O40,0.039568345,"4,6","4c_Ni_1_Ch,6c_Ni_1_Ch",45,O:C(:O)C1:C:C(F):C(:C:C:1F)C1:N:C(:N:C(:N:1)C1:C:C(F):C(:C:C:1F)C(:O):O)C1:C:C(F):C(:C:C:1F)C(:O):O,1
SR_kle_v1-3c_triazine_Ch_v2-12c_Zr_1_Ch_v3-3c_triazine_Ch_1DoU_Ch_1x1x1,0.21161,0.73276,0.732838,2831.47,2075.01,13.21899,5.2521,37461.64552,,,,1200,,384,384,192,C30H17N9O16Zr3,0.041666667,12,12c_Zr_1_Ch,44,O:C(:O)C=CC1:N:C(C=CC(:O):O):N:C(C=CC2:N:C(C=CC(:O):O):N:C(C=CC(:O):O):N:2):N:1,1
SR_fvb_v1-4c_1anC_Ch_v2-4c_Cd_1_Ch_ntn_edge_2B_4CN_Ch_1x1x1,0.12659,0.65886,0.826355,2010.92,1661.74,12.20788,8.2436,23219.45481,,,,672,,96,96,96,C35Cd1N12O8,0.018181818,4,4c_Cd_1_Ch,,None,1
SR_fla_v1-8c_Co_2_Ch_v2-4c_1anC_Ch_ntn_edge_2B_4Br_Ch_1x1x1,0.18914,0.41238,2.56742,0,0,11.5719,1.20105,26659.88087,,,,1204,,80,80,64,Br96C168Cl1Co4H8N24,0.013468013,8,8c_Co_2_Ch,148,BrC1:C(Br):C2:C(Br):C(Br):C:1C1:C(Br):C(Br):C(:C(Br):C:1Br)C1(C3C:N:N:N:3)C3:C(Br):C(Br):C(:C(Br):C:3Br)C3:C(Br):C(Br):C(:C(Br):C:3Br)C3(C4C:N:N:N:4)C4:C(Br):C(Br):C(:C(Br):C:4Br)C4:C(Br):C(Br):C(:C(Br):C:4Br)C2(C2C:N:N:N:2)C2:C(Br):C(Br):C(:C(Br):C:2Br)C2:C(Br):C(Br):C(:C(Br):C:2Br)C(C2C:N:N:N:2)(C2:C(Br):C(Br):C(:C(Br):C:2Br)C2:C(Br):C(Br):C1:C(Br):C:2Br)C1:C(Br):C(Br):C(:C(Br):C:1Br)C1:C(Br):C(Br):C3:C(Br):C:1Br,1
SR_jaj_v1-3c_triazine_Ch_v2-4c_bicyclooctane_Ch_v3-4c_Ni_1_Ch_1B_4Br_Ch_2x2x1,0.09744,0.78146,0.895137,1982.62,1774.72,15.50769,10.91391,81731.10071,,,,1456,,72,64,64,Br24C52H4N6Ni1O4,0.011111111,4,4c_Ni_1_Ch,,None,1
SR_kag_v1-6c_Ni_1_Ch_1B_4Br_Ch_2x2x1,0.14534,0.71106,1.255,1317.28,1653.18,14.06805,11.31844,62660.76731,,,,1344,,432,432,288,Br6C12H1Ni2O7,0.076923077,6,6c_Ni_1_Ch,16,O:C(:O)C1:C(Br):C(Br):C(C(:O):O):C(Br):C:1Br,1
SR_fsb_v1-4c_1anC_Ch_v2-6c_Cr_1_Ch_1B_2F_Ch_2x2x2,0.28227,0.6168,0.995889,1451.35,1445.39,9.06697,5.08508,45637.89005,,,,1840,,240,240,192,C63Cr3F18H18O13,0.026785714,6,6c_Cr_1_Ch,222,O:C(:O)C1:C:C(F):C(:C:C:1F)C1(C2:C:C(F):C(:C:C:2F)C(:O):O)C2:C:C(F):C(:C:C:2F)C(C2:C:C(F):C(:C:C:2F)C(:O):O)(C2:C:C(F):C(:C:C:2F)C(:O):O)C2:C:C(F):C(:C:C:2F)C(C2:C:C(F):C(:C:C:2F)C(:O):O)(C2:C:C(F):C(:C:C:2F)C(:O):O)C2:C:C(F):C(:C:C:2F)C(C2:C:C(F):C(:C:C:2F)C(:O):O)(C2:C:C(F):C(:C:C:2F)C(:O):O)C2:C:C(F):C(:C:C:2F)C(C2:C:C(F):C(:C:C:2F)C(:O):O)(C2:C:C(F):C(:C:C:2F)C(:O):O)C2:C:C(F):C(:C:C:2F)C(C2:C:C(F):C(:C:C:2F)C(:O):O)(C2:C:C(F):C(:C:C:2F)C(:O):O)C2:C:C(F):C1:C:C:2F,1
SR_kagd_v1-8c_Zr_1_Ch_v2-5c_bicyclooctane_Ch_1B_4CN_Ch_ntn_edge_2x2x2,0.31084,0.51876,1.20108,0,0,6.44244,3.48423,85648.44196,,,,3520,,768,768,256,C58H14N19O16Zr3,0.028037383,8,8c_Zr_1_Ch,"352,6",N#CC1:C(C#N):C(:C(C#N):C(C#N):C:1C(:O):O)N1:C:C2:C(:C:1)C13C4:C:N(:C:C:4C2(C2:C:N(:C:C:21)C1:C(C#N):C(C#N):C(C(:O):O):C(C#N):C:1C#N)C1:C(C#N):C(C#N):C(:C(C#N):C:1C#N)C12C4:C:N(:C:C:4C(C4:C:N(:C:C:41)C1:C(C#N):C(C#N):C(C(:O):O):C(C#N):C:1C#N)(C1:C:N(:C:C:12)C1:C(C#N):C(C#N):C(C(:O):O):C(C#N):C:1C#N)C1:C(C#N):C(C#N):C(:C(C#N):C:1C#N)C12C4:C:N(:C:C:4C(C4:C:N(:C:C:41)C1:C(C#N):C(C#N):C(C(:O):O):C(C#N):C:1C#N)(C1:C:N(:C:C:12)C1:C(C#N):C(C#N):C(C(:O):O):C(C#N):C:1C#N)C1:C(C#N):C(C#N):C(:C(C#N):C:1C#N)C12C4:C:N(:C:C:4C(C4:C:N(:C:C:41)C1:C(C#N):C(C#N):C(C(:O):O):C(C#N):C:1C#N)(C1:C:N(:C:C:12)C1:C(C#N):C(C#N):C(C(:O):O):C(C#N):C:1C#N)C1:C(C#N):C(C#N):C3:C(C#N):C:1C#N)C1:C(C#N):C(C#N):C(C(:O):O):C(C#N):C:1C#N)C1:C(C#N):C(C#N):C(C(:O):O):C(C#N):C:1C#N)C1:C(C#N):C(C#N):C(C(:O):O):C(C#N):C:1C#N)C1:C(C#N):C(C#N):C(C(:O):O):C(C#N):C:1C#N___O:C(:O)C(:O):O,1
SR_idp_v1-4c_Ni_1_Ch_v2-3c_pyrrole_Ch_v3-6c_Ni_1_Ch_1B_4CN_Ch_ntn_edge_1x1x1,0.23153,0.45182,1.50003,0,0,7.87354,1.91707,13054.98705,,,,796,,198,192,144,C102H16N30Ni11O40,0.058510638,"4,6","4c_Ni_1_Ch,6c_Ni_1_Ch",30,N#CC1:C(C#N):C(:C(C#N):C(C#N):C:1C(:O):O)N1:C(:C:C:C:1C(:O):O)C(:O):O,1
SR_fla_v1-8c_Co_2_Ch_v2-4c_1anC_Ch_1B_2CN_Ch_1x1x1,0.11606,0.7204,0.62551,3081.75,1927.67,15.82269,5.36359,36382.36103,,,,1204,,80,80,64,C184Cl1Co4H48N64,0.013468013,8,8c_Co_2_Ch,148,N#CC1:C:C(:C(C#N):C:C:1C1C:N:N:N:1)C12C3:C:C(C#N):C(:C:C:3C#N)C3(C4:C:C(C#N):C(:C:C:4C#N)C4C:N:N:N:4)C4:C:C(C#N):C(:C:C:4C#N)C(C4:C:C(C#N):C(:C:C:4C#N)C4C:N:N:N:4)(C4:C:C(C#N):C1:C:C:4C#N)C1:C:C(C#N):C(:C:C:1C#N)C(C1:C:C(C#N):C(:C:C:1C#N)C1C:N:N:N:1)(C1:C:C(C#N):C2:C:C:1C#N)C1:C:C(C#N):C3:C:C:1C#N,1
SR_fla_v1-8c_Co_1_Ch_v2-4c_1anC_Ch_ntn_edge_1B_2NH2_Ch_1x1x2,0.60388,0.29744,1.64574,0,0,6.02516,0.95031,15937.7407,,,,1640,,160,160,128,C88Co4H72N24O17,0.019900498,8,8c_Co_1_Ch,100,NC1:C:C2:C(N):C:C:1C1(C(:O):O)C3:C:C(N):C(:C:C:3N)C3(C(:O):O)C4:C:C(N):C(:C:C:4N)C2(C(:O):O)C2:C:C(N):C(:C:C:2N)C(C(:O):O)(C2:C:C(N):C1:C:C:2N)C1:C:C(N):C3:C:C:1N,1
SR_fsx_v1-5c_bicyclooctane_Ch_v2-6c_CdZn_1_Ch_ntn_edge_1B_2OH_Ch_2x2x1,0.13931,0.7465,0.757902,2891.83,2191.72,10.81503,6.55592,51059.27767,,,,1696,,256,256,192,C50Cd3H26N3O23Zn1,0.039215686,6,6c_CdZn_1_Ch,"6,98",O:C(:O)C(:O):O___O:C(:O)C1:C:C(O):C(:C:C:1O)N1:C:C2:C(:C:1)C1(C3:C:C(O):C(:C:C:3O)C(:O):O)C3:C:N(:C:C:3C2(C2:C:C(O):C(:C:C:2O)C(:O):O)C2:C:N(:C:C:21)C1:C:C(O):C(:C:C:1O)C(:O):O)C1:C:C(O):C(:C:C:1O)C(:O):O,1
SR_knc_v1-4c_porphyrin_Ch_v2-8c_Co_2_Ch_v3-8c_Co_1_Ch_1B_4CN_Ch_2x2x1,0.17371,0.65274,0.800206,2072.34,1658.3,9.54416,6.66245,90640.51222,,,,3536,,320,320,256,C264Cl1Co8H48N104O17,0.01843318,8,"8c_Co_1_Ch,8c_Co_2_Ch","34,108,182",N#CC1:C(C#N):C(:C(C#N):C(C#N):C:1C(:O):O)C1:C(C#N):C(C#N):C(C(:O):O):C(C#N):C:1C#N___N#CC1:C(C#N):C(:C(C#N):C(C#N):C:1C1C:N:N:N:1)C1:C2:C:C:C(:N:2):C(C2:C(C#N):C(C#N):C(C(:O):O):C(C#N):C:2C#N):C2:C:C:C(:[NH]:2):C(C2:C(C#N):C(C#N):C(C(:O):O):C(C#N):C:2C#N):C2:C:C:C(:N:2):C(C2:C(C#N):C(C#N):C(C3C:N:N:N:3):C(C#N):C:2C#N):C2:C:C:C:1:[NH]:2___N#CC1:C(C#N):C(:C(C#N):C(C#N):C:1C1C:N:N:N:1)C1:C2:C:C:C(:N:2):C(C2:C(C#N):C(C#N):C(C(:O):O):C(C#N):C:2C#N):C2:C:C:C(:[NH]:2):C(C2:C3:C:C:C(:N:3):C(C3:C(C#N):C(C#N):C(C(:O):O):C(C#N):C:3C#N):C3:C:C:C(:[NH]:3):C(C3:C(C#N):C(C#N):C(C4C:N:N:N:4):C(C#N):C:3C#N):C3:C:C:C(:N:3):C(C3:C(C#N):C(C#N):C(C4C:N:N:N:4):C(C#N):C:3C#N):C3:C:C:C:2:[NH]:3):C2:C:C:C(:N:2):C(C2:C(C#N):C(C#N):C(C3C:N:N:N:3):C(C#N):C:2C#N):C2:C:C:C:1:[NH]:2,1
SR_flt_v1-3c_B_Ch_v2-8c_Co_1_Ch_ntn_edge_1B_4F_Ch_2x2x1,0.16771,0.75218,0.690552,2838.39,1960.06,12.24697,6.52126,40182.88637,,,,1160,,160,160,128,C80Co4F32H12O17,0.028368794,8,8c_Co_1_Ch,70,O:C(:O)C1:C(F):C(F):C(C2:C:C(:C:C(:C:2)C2:C(F):C(F):C(C(:O):O):C(F):C:2F)C2:C:C(:C:C(:C:2)C2:C(F):C(F):C(C(:O):O):C(F):C:2F)C2:C(F):C(F):C(C(:O):O):C(F):C:2F):C(F):C:1F,1
SR_hyx_v1-3c_triazine_Ch_v2-4c_Ni_1_Ch_v3-4c_B_Ch_ntn_edge_1B_4F_Ch_2x2x1,0.40864,0.76204,0.655099,3373.29,2209.84,14.34166,6.57288,63597.08656,,,,1696,,144,128,128,C29F12H1N6Ni1O4,0.019230769,4,4c_Ni_1_Ch,416,O:C(:O)C1:C(F):C(F):C(C2:N:C3:N:C(:N:2)C2:C(F):C(F):C(C4:N:C(:N:C(:N:4)C4:C(F):C(F):C(C(:O):O):C(F):C:4F)C4:C:C5C6:N:C(:N:C(:N:6)C6:C(F):C(F):C(C7:N:C(:N:C(:N:7)C7:C(F):C(F):C(C(:O):O):C(F):C:7F)C7:C:C8C9:N:C(:N:C(:N:9)C9:C(F):C(F):C(C%10:N:C(:N:C(:N:%10)C%10:C(F):C(F):C(C(:O):O):C(F):C:%10F)C%10:C:C%11C%12:N:C(:N:C(:N:%12)C%12:C(F):C(F):C(C%13:N:C(:N:C(:N:%13)C%13:C(F):C(F):C(C(:O):O):C(F):C:%13F)C%13:C:C3:C3:C:C:%13C%13:N:C(:N:C(:N:%13)C%13:C(F):C(F):C(C%14:N:C(:N:C(:N:%14)C%14:C(F):C(F):C(C(:O):O):C(F):C:%14F)C:%11:C:C:%10C%10:N:C(:N:C(:N:%10)C%10:C(F):C(F):C(C%11:N:C(:N:C(:N:%11)C%11:C(F):C(F):C(C(:O):O):C(F):C:%11F)C:8:C:C:7C7:N:C(:N:C(:N:7)C7:C(F):C(F):C(C8:N:C(:N:C(:N:8)C8:C(F):C(F):C(C(:O):O):C(F):C:8F)C:5:C:C:4C4:N:C(:N:C(:N:4)C4:C(F):C(F):C(C5:N:C3:N:C(:N:5)C3:C(F):C(F):C(C(:O):O):C(F):C:3F):C(F):C:4F)C3:C(F):C(F):C(C(:O):O):C(F):C:3F):C(F):C:7F)C3:C(F):C(F):C(C(:O):O):C(F):C:3F):C(F):C:%10F)C3:C(F):C(F):C(C(:O):O):C(F):C:3F):C(F):C:%13F)C3:C(F):C(F):C(C(:O):O):C(F):C:3F):C(F):C:%12F)C3:C(F):C(F):C(C(:O):O):C(F):C:3F):C(F):C:9F)C3:C(F):C(F):C(C(:O):O):C(F):C:3F):C(F):C:6F)C3:C(F):C(F):C(C(:O):O):C(F):C:3F):C(F):C:2F):C(F):C:1F,1
SR_fsh_v1-4c_1anC_Ch_v2-6c_CdZn_1_Ch_1B_2TrU_Ch_2x2x1,0.0969,0.90696,0.241261,6309.28,1522.18,19.99867,16.25856,150643.5238,,,,1476,,192,192,144,C78Cd3H28O13Zn1,0.033613445,6,6c_CdZn_1_Ch,118,O:C(:O)C#CC1:C:C:C(C#CC(C#CC2:C:C:C(C#CC(:O):O):C:C:2)(C#CC2:C:C:C(C#CC(:O):O):C:C:2)C#CC2:C:C:C(C#CC(C#CC3:C:C:C(C#CC(:O):O):C:C:3)(C#CC3:C:C:C(C#CC(:O):O):C:C:3)C#CC3:C:C:C(C#CC(:O):O):C:C:3):C:C:2):C:C:1,1
SR_gal_v1-6c_B_Ch_v2-8c_Co_1_Ch_ntn_edge_1DoU_Ch_1x1x1,0.3444,0.5657,1.30374,1127.79,1470.34,7.81401,5.92014,23110.45012,,,,1176,,480,480,384,C20Co4H8O17,0.088888889,8,8c_Co_1_Ch,"6,48",O:C(:O)C(:O):O___O:C(:O)C=CC1:C(C=CC(:O):O):C(C=CC(:O):O):C(C=CC(:O):O):C(C=CC(:O):O):C:1C=CC(:O):O,1
SR_fsh_v1-4c_1anC_Ch_v2-6c_Zn_1_Ch_1DoU_Ch_3x3x1,0.25949,0.67064,0.991546,1795.89,1780.71,7.64552,4.93446,39652.03282,,,,1431,,432,432,324,C22H14O13Zn4,0.081632653,6,6c_Zn_1_Ch,48,O:C(:O)C=CC(C=CC(:O):O)(C=CC(:O):O)C=CC(C=CC(:O):O)(C=CC(:O):O)C=CC(:O):O,1
SR_kce_v1-3c_triazine_Ch_v2-4c_porphyrin_Ch_v3-12c_Mn_1_Ch_1DoU_Ch_1TrU_Ch_1x1x1,0.1782,0.7146,0.715841,2461.98,1762.39,20.83891,5.14381,44315.30049,,,,1456,,336,336,144,C96H27Mn8N24O27,0.045977011,12,12c_Mn_1_Ch,"114,114",OC(:O)C#CC1:N:C(C#CC(:O):O):N:C(C=CC2:C3:C:C:C(:N:3):C(C=CC3:N:C(C#CC(O):O):N:C(C#CC(:O):O):N:3):C3:C:C:C(:[NH]:3):C(C=CC3:N:C(C#CC(O):O):N:C(C#CC(:O):O):N:3):C3:C:C:C(:N:3):C(C=CC3:N:C(C#CC(O):O):N:C(C#CC(:O):O):N:3):C3:C:C:C:2:[NH]:3):N:1___OC(:O)C#CC1:N:C(C#CC(O):O):N:C(C=CC2:C3:C:C:C(:N:3):C(C=CC3:N:C(C#CC(:O):O):N:C(C#CC(:O):O):N:3):C3:C:C:C(:[NH]:3):C(C=CC3:N:C(C#CC(O):O):N:C(C#CC(:O):O):N:3):C3:C:C:C(:N:3):C(C=CC3:N:C(C#CC(O):O):N:C(C#CC(:O):O):N:3):C3:C:C:C:2:[NH]:3):N:1,1
SR_gar_v1-4c_1anC_Ch_v2-6c_Mg_1_Ch_2B_4Br_Ch_1x1x1,0.06107,0.79872,0.823012,1858.07,1529.21,17.89797,14.67304,174326.8221,,,,2712,,480,480,192,Br32C57H4Mg4O16,0.036697248,6,6c_Mg_1_Ch,93,O:C(:O)C1:C(Br):C(Br):C(:C(Br):C:1Br)C1:C(Br):C(Br):C(:C(Br):C:1Br)C(C1:C(Br):C(Br):C(:C(Br):C:1Br)C1:C(Br):C(Br):C(C(:O):O):C(Br):C:1Br)(C1:C(Br):C(Br):C(:C(Br):C:1Br)C1:C(Br):C(Br):C(C(:O):O):C(Br):C:1Br)C1:C(Br):C(Br):C(:C(Br):C:1Br)C1:C(Br):C(Br):C(C(:O):O):C(Br):C:1Br,1
SR_fsb_v1-4c_1anC_Ch_v2-6c_Fe_1_Ch_ntn_edge_1B_2NO2_Ch_2x2x2,0.39541,0.27282,1.93428,0,0,3.34833,1.37702,23164.49147,,,,1744,,240,240,192,C45Fe3H12N12O37,0.028301887,6,6c_Fe_1_Ch,210,O:C(:O)C1:C:C(:C(:C:C:1N(:O):O)C1(C2:C:C(:C(:C:C:2N(:O):O)C(:O):O)N(:O):O)C(C2:C:C(:C(:C:C:2N(:O):O)C(:O):O)N(:O):O)(C2:C:C(:C(:C:C:2N(:O):O)C(:O):O)N(:O):O)C(C2:C:C(:C(:C:C:2N(:O):O)C(:O):O)N(:O):O)(C2:C:C(:C(:C:C:2N(:O):O)C(:O):O)N(:O):O)C(C2:C:C(:C(:C:C:2N(:O):O)C(:O):O)N(:O):O)(C2:C:C(:C(:C:C:2N(:O):O)C(:O):O)N(:O):O)C(C2:C:C(:C(:C:C:2N(:O):O)C(:O):O)N(:O):O)(C2:C:C(:C(:C:C:2N(:O):O)C(:O):O)N(:O):O)C1(C1:C:C(:C(:C:C:1N(:O):O)C(:O):O)N(:O):O)C1:C:C(:C(:C:C:1N(:O):O)C(:O):O)N(:O):O)N(:O):O,1
SR_flue_v1-6c_Fe_1_Ch_1B_2indole_Ch_1x1x1,0.37371,0.87836,0.302108,4795.17,1448.66,33.70173,10.25586,160076.9832,,,,2432,,480,480,384,C36Fe3H18N6O13,0.04109589,6,6c_Fe_1_Ch,24,O:C(:O)C1:C:C2:C:C3:[NH]:C(:C:C:3:C:C:2:[NH]:1)C(:O):O,1
SR_kms_v1-6c_CdZn_1_Ch_v2-3c_pyrrole_Ch_v3-3c_triazine_Ch_1B_2Br_Ch_1x1x1,0.06843,0.7857,0.769757,2685.15,2066.91,15.9953,12.56728,59029.31061,,,,1086,,96,96,72,Br24C98Cd3H28N14O13Zn1,0.02259887,6,6c_CdZn_1_Ch,176,O:C(:O)C1:C:C(Br):C(:C:C:1Br)C1:N:C2:N:C(:N:1)C1:C:C(Br):C(:C:C:1Br)C1:C:C:C(C3:C:C(Br):C(:C:C:3Br)C3:N:C(:N:C(:N:3)C3:C:C(Br):C(:C:C:3Br)C3:N:C(:N:C(:N:3)C3:C:C(Br):C(:C:C:3Br)C3:C:C:C(C4:C:C(Br):C(:C:C:4Br)C4:N:C(:N:C(:N:4)C4:C:C(Br):C2:C:C:4Br)C2:C:C(Br):C(:C:C:2Br)C(:O):O):N:3C2:C:C(Br):C(:C:C:2Br)C(:O):O)C2:C:C(Br):C(:C:C:2Br)C(:O):O)C2:C:C(Br):C(:C:C:2Br)C(:O):O):N:1C1:C:C(Br):C(:C:C:1Br)C(:O):O,1
SR_ilc_v1-8c_Co_2_Ch_1B_2NO2_Ch_2x2x1,0.66341,0.45212,1.44184,0,0,5.66807,2.2268,45949.84083,,,,2616,,480,480,384,C40Cl1Co4H16N32O16,0.038095238,8,8c_Co_2_Ch,26,O:N(:O)C1:C:C(C2C:N:N:N:2):C(:C:C:1C1C:N:N:N:1)N(:O):O,1
SR_jph_v1-3c_Cu_imadazoline_Ch_v2-4c_Cu_1_Ch_2TrU_Ch_1TrU_Ch_1x1x1,0.07589,0.9664,0.101339,6249.16,633.284,36.49474,32.27789,140702.9908,,,,536,,132,128,128,C32Cu7H12N12O4,0.116666667,"3,4","3c_Cu_imadazoline_Ch,4c_Cu_1_Ch","16,14",C(#CC1:C:N:N:C:1)C1:C:N:N:C:1___O:C(:O)C#CC#CC1:C:N:N:C:1,1
SR_ftj_v1-4c_In_1_Ch_v2-4c_bicyclooctane_Ch_1TrU_Ch_1DoU_Ch_ntn_edge_1x1x1,0.10747,0.82572,0.509755,3351.78,1708.59,18.87513,15.52996,40861.82989,,,,832,,256,256,256,C12H5In1O8,0.04,4,4c_In_1_Ch,"80,10",O:C(:O)C1=CC23C#CC45C=C(C#CC6=CC7(C#CC89C=C(C#CC(=C2)C1C(=C3)C(:O):O)C(C(=C8)C(:O):O)C(=C9)C(:O):O)C=C(C(:O):O)C6C(=C7)C(:O):O)C(C(=C4)C(:O):O)C(=C5)C(:O):O___O:C(:O)C=CC(:O):O,1
SR_fsd_v1-4c_porphyrin_Ch_v2-6c_Zn_1_Ch_1DoU_Ch_1TrU_Ch_1B_4H_Ch_1x1x1,0.20956,0.83128,0.410698,4368.6,1794.18,17.21217,15.94517,11644.50883,,,,258,,32,32,24,C68H36N8O13Zn4,0.032,6,6c_Zn_1_Ch,"8,116",O:C(:O)C#CC(:O):O___O:C(:O)C=CC1:C2:C:C:C(:N:2):C2C3:C:C:C(:C:C:3)C3:C4:C:C:C(:N:4):C(C=CC(:O):O):C4:C:C:C(:[NH]:4):C(C4:C:C:C(:C:C:4)C(:C4:C:C:C(:N:4):C(C=CC(:O):O):C4:C:C:C:2:[NH]:4):C2:C:C:C:1:[NH]:2):C1:C:C:C(:N:1):C(C=CC(:O):O):C1:C:C:C:3:[NH]:1,1
SR_fsb_v1-4c_bicyclooctane_Ch_v2-6c_Al_1_Ch_1B_2F_Ch_1x2x2,0.19921,0.76124,0.573191,3595.9,2061.14,13.2594,7.92253,44661.84007,,,,1184,,120,120,96,Al3C84F18H30O13,0.020689655,6,6c_Al_1_Ch,288,O:C(:O)C1:C:C(F):C(:C:C:1F)C1=CC23C=C(C4:C:C(F):C(:C:C:4F)C4=CC5(C=C(C6:C:C(F):C(:C:C:6F)C(:O):O)C4C(=C5)C4:C:C(F):C(:C:C:4F)C(:O):O)C4:C:C(F):C(:C:C:4F)C45C=C(C6:C:C(F):C(:C:C:6F)C(:O):O)C(C(=C4)C4:C:C(F):C(:C:C:4F)C(:O):O)C(=C5)C4:C:C(F):C(:C:C:4F)C45C=C(C6:C:C(F):C(:C:C:6F)C6=CC7(C=C(C8:C:C(F):C(:C:C:8F)C(:O):O)C6C(=C7)C6:C:C(F):C(:C:C:6F)C(:O):O)C6:C:C(F):C(:C:C:6F)C67C=C(C8:C:C(F):C(:C:C:8F)C(:O):O)C(C(=C6)C6:C:C(F):C(:C:C:6F)C(:O):O)C(=C7)C6:C:C(F):C2:C:C:6F)C(C(=C4)C2:C:C(F):C(:C:C:2F)C(:O):O)C(=C5)C2:C:C(F):C(:C:C:2F)C(:O):O)C1C(=C3)C1:C:C(F):C(:C:C:1F)C(:O):O,1
SR_fsh_v1-4c_bicyclooctane_Ch_v2-6c_Zn_1_Ch_ntn_edge_1B_2SH_Ch_2x2x1,0.12147,0.71108,0.753276,2796.42,2106.48,9.29082,5.55601,49589.77044,,,,1428,,192,192,144,C58H32O13S12Zn4,0.034782609,6,6c_Zn_1_Ch,114,O:C(:O)C1:C:C(S):C(:C:C:1S)C1=CC2(C=C(C3=CC4(C=C(C5:C:C(S):C(:C:C:5S)C(:O):O)C3C(=C4)C3:C:C(S):C(:C:C:3S)C(:O):O)C3:C:C(S):C(:C:C:3S)C(:O):O)C1C(=C2)C1:C:C(S):C(:C:C:1S)C(:O):O)C1:C:C(S):C(:C:C:1S)C(:O):O,1
SR_etf_v1-3c_Cu_imadazoline_Ch_1B_2OH_Ch_1x1x1,0.04164,0.96692,0.0952471,6038.91,575.189,43.30404,35.39592,410089.2628,,,,1512,,216,216,216,C6Cu1H4N2O1,0.076923077,3,3c_Cu_imadazoline_Ch,26,OC1:C:C(C2:C:N:N:C:2):C(O):C:C:1C1:C:N:N:C:1,1
SR_fof_v1-3c_Cu_imadazoline_Ch_v2-4c_Cu_1_Ch_1B_4H_Ch_1DoU_Ch_1x1x1,0.13738,0.94438,0.166414,5610.04,933.59,29.56006,20.80049,146372.9101,,,,954,,189,180,180,C24Cu4H15N6O4,0.081632653,"3,4","3c_Cu_imadazoline_Ch,4c_Cu_1_Ch","18,20",C(=CC1:C:N:N:C:1)C1:C:N:N:C:1___O:C(:O)C1:C:C:C(:C:C:1)C1:C:N:N:C:1,1
SR_fla_v1-8c_Mn_1_Ch_v2-4c_1anC_Ch_ntn_edge_1B_4H_Ch_1x1x1,0.25652,0.57256,0.983727,0,0,10.24527,2.32745,12213.1929,,,,692,,80,80,64,C88Cl1H48Mn4N32,0.023668639,8,8c_Mn_1_Ch,84,C1:C:C2:C:C:C:1C1(C3:C:C:C(:C:C:3)C3(C4:C:C:C(:C:C:4)C2(C2:C:C:C(:C:C:2)C(C2:C:C:C1:C:C:2)(C1:C:C:C3:C:C:1)C1:N:N:N:N:1)C1:N:N:N:N:1)C1:N:N:N:N:1)C1:N:N:N:N:1,1
SR_flt_v1-3c_B_Ch_v2-8c_Zr_1_Ch_ntn_edge_1B_2NO2_Ch_2x2x1,0.12056,0.7409,0.681802,2706.79,1845.5,13.61739,8.0972,54574.67943,,,,1680,,384,384,128,C40H22N8O32Zr3,0.029411765,8,8c_Zr_1_Ch,86,O:C(:O)C1:C:C(:C(:C:C:1N(:O):O)C1:C:C(:C:C(:C:1)C1:C:C(:C(:C:C:1N(:O):O)C(:O):O)N(:O):O)C1:C:C(:C:C(:C:1)C1:C:C(:C(:C:C:1N(:O):O)C(:O):O)N(:O):O)C1:C:C(:C(:C:C:1N(:O):O)C(:O):O)N(:O):O)N(:O):O,1
SR_fvo_v1-4c_In_1_Ch_v2-4c_In_1_Ch_1B_2NO2_Ch_ntn_edge_1x1x1,0.07835,0.82606,0.521947,3600.8,1879.43,18.73993,9.95041,68322.58246,,,,1140,,288,288,288,C36H8In3N8O40,0.032608696,4,4c_In_1_Ch,"6,20",O:C(:O)C(:O):O___O:C(:O)C1:C:C(:C(:C:C:1N(:O):O)C(:O):O)N(:O):O,1
SR_jph_v1-3c_B_Ch_v2-4c_Cu_1_Ch_2B_4F_Ch_1x1x1,0.11951,0.94016,0.158185,5393.26,853.135,31.37919,27.48641,124811.0819,,,,840,,36,32,32,C62Cu1F32H6O4,0.009615385,4,4c_Cu_1_Ch,208,O:C(:O)C1:C(F):C(F):C(:C(F):C:1F)C1:C(F):C(F):C(C2:C:C3:C:C(:C:2)C2:C(F):C(F):C(:C(F):C:2F)C2:C(F):C(F):C(C4:C:C(:C:C(:C:4)C4:C(F):C(F):C(:C(F):C:4F)C4:C(F):C(F):C(C5:C:C(:C:C(:C:5)C5:C(F):C(F):C(:C(F):C:5F)C5:C(F):C(F):C(C6:C:C(:C:C(:C:6)C6:C(F):C(F):C(:C(F):C:6F)C6:C(F):C(F):C3:C(F):C:6F)C3:C(F):C(F):C(:C(F):C:3F)C3:C(F):C(F):C(C(:O):O):C(F):C:3F):C(F):C:5F)C3:C(F):C(F):C(:C(F):C:3F)C3:C(F):C(F):C(C(:O):O):C(F):C:3F):C(F):C:4F)C3:C(F):C(F):C(:C(F):C:3F)C3:C(F):C(F):C(C(:O):O):C(F):C:3F):C(F):C:2F):C(F):C:1F,1
SR_ibe_v1-6c_CdZn_1_Ch_v2-3c_B_Ch_2B_2F_Ch_1x1x1,0.06593,0.90534,0.253721,5402.5,1370.73,19.30028,15.71305,271123.6066,,,,3200,,256,256,192,C114Cd3F30H39O13Zn1,0.020408163,6,6c_CdZn_1_Ch,130,O:C(:O)C1:C:C(F):C(:C:C:1F)C1:C:C(F):C(:C:C:1F)C1:C:C(:C:C(:C:1)C1:C:C(F):C(:C:C:1F)C1:C:C(F):C(:C:C:1F)C1:C:C(:C:C(:C:1)C1:C:C(F):C(:C:C:1F)C1:C:C(F):C(:C:C:1F)C(:O):O)C1:C:C(F):C(:C:C:1F)C1:C:C(F):C(:C:C:1F)C(:O):O)C1:C:C(F):C(:C:C:1F)C1:C:C(F):C(:C:C:1F)C(:O):O,1
SR_fla_v1-8c_Co_1_Ch_v2-4c_1anC_Ch_2B_2Br_Ch_ntn_edge_1x1x1,0.26649,0.36518,2.33691,0,0,9.30406,1.08997,17946.48393,,,,1108,,80,80,64,Br48C160Co4H48O17,0.014652015,8,8c_Co_1_Ch,136,O:C(:O)C12C3:C:C(Br):C(:C:C:3Br)C3:C:C(Br):C(:C:C:3Br)C3(C(:O):O)C4:C:C(Br):C(:C:C:4Br)C4:C:C(Br):C(:C:C:4Br)C(C(:O):O)(C4:C:C(Br):C(:C:C:4Br)C4:C:C(Br):C1:C:C:4Br)C1:C:C(Br):C(:C:C:1Br)C1:C:C(Br):C(:C:C:1Br)C(C(:O):O)(C1:C:C(Br):C(:C:C:1Br)C1:C:C(Br):C2:C:C:1Br)C1:C:C(Br):C(:C:C:1Br)C1:C:C(Br):C3:C:C:1Br,1
SR_kagd_v1-8c_Tb_1_Ch_v2-5c_bicyclooctane_Ch_1TrU_Ch_1B_4H_Ch_2x2x2,0.4661,0.69184,0.833265,2717.1,2264.07,7.54984,5.97446,56250.98976,,,,1696,,256,256,256,C31H10N3O8Tb1,0.019230769,8,8c_Tb_1_Ch,"8,192",O:C(:O)C#CC(:O):O___O:C(:O)C#CN1:C:C2:C(:C:1)C13C4:C:C:C(:C:C:4)C45C6:C:N(C#CC(:O):O):C:C:6C(C6:C:C:C(:C:C:6)C67C8:C:N(C#CC(:O):O):C:C:8C(C8:C:C:C(:C:C:8)C89C%10:C:N(C#CC(:O):O):C:C:%10C(C%10:C:C:C(:C:C:%10)C2(C2:C:N(C#CC(:O):O):C:C:21)C1:C:N(C#CC(:O):O):C:C:13)(C1:C:N(C#CC(:O):O):C:C:18)C1:C:N(C#CC(:O):O):C:C:19)(C1:C:N(C#CC(:O):O):C:C:16)C1:C:N(C#CC(:O):O):C:C:17)(C1:C:N(C#CC(:O):O):C:C:14)C1:C:N(C#CC(:O):O):C:C:15,1
SR_fsg_v1-4c_Ni_1_Ch_v2-6c_Ni_1_Ch_ntn_edge_1B_4H_Ch_1DoU_Ch_1x2x2,0.69776,0.67726,1.02195,1772.93,1811.85,8.42786,6.31123,29254.30781,,,,1024,,432,416,320,C12H6Ni3O11,0.103448276,"4,6","4c_Ni_1_Ch,6c_Ni_1_Ch","6,16,10",O:C(:O)C(:O):O___O:C(:O)C1:C:C:C(:C:C:1)C(:O):O___O:C(:O)C=CC(:O):O,1
SR_fsg_v1-4c_Ni_1_Ch_v2-6c_Ni_1_Ch_ntn_edge_1B_4F_Ch_1x2x2,0.43093,0.69558,1.01143,2054.75,2078.23,8.00248,6.74849,35976.02601,,,,1120,,432,416,320,C14F6H1Ni3O11,0.09375,"4,6","4c_Ni_1_Ch,6c_Ni_1_Ch","6,16",O:C(:O)C(:O):O___O:C(:O)C1:C(F):C(F):C(C(:O):O):C(F):C:1F,1
SR_hbr_v1-8c_Mn_1_Ch_v2-8c_Mn_1_Ch_1DoU_Ch_1x1x2,0.44573,0.79266,0.572011,3078.36,1760.86,23.42758,15.72637,54610.08969,,,,1098,,360,360,288,C16Cl1H8Mn4N32,0.070175439,8,8c_Mn_1_Ch,14,C(=CC1:N:N:N:N:1)C1:N:N:N:N:1,1