name,k,VF,density,ASA_grav,ASA_vol,LPD,PLD,volume,,,,N_atoms,,N_metal_containing_bonds,N_metal_nonmetal_bonds,N_metal_linker_bonds,formula,metal_nonmetal_ratio,metal_node_connectivity,metal_node_name,N_atoms_per_linker,linker_SMILES,N_ccs
SR_dtc_v1-4c_bicyclooctane_Ch_v2-4c_In_1_Ch_v3-4c_1anC_Ch_2B_fused_Ch_ntn_edge_1x1x1,0.09656,0.90148,0.217038,5550.45,1204.66,53.81497,52.42055,135699.4079,,,,1632,,96,96,96,C82H45In1O8,0.007407407,4,4c_In_1_Ch,"6,132,440",O:C(:O)C(:O):O___O:C(:O)C1:C:C:C2:C:C(:C:C:C:2:C:1)C(C1:C:C:C2:C:C(:C:C:C:2:C:1)C(:O):O)(C1:C:C:C2:C:C(:C:C:C:2:C:1)C(:O):O)C1:C:C:C2:C:C(:C:C:C:2:C:1)C(C1:C:C:C2:C:C(:C:C:C:2:C:1)C(:O):O)(C1:C:C:C2:C:C(:C:C:C:2:C:1)C(:O):O)C1:C:C:C2:C:C(:C:C:C:2:C:1)C(:O):O___O:C(:O)C1:C:C:C2:C:C(:C:C:C:2:C:1)C12C=C3C4:C:C:C5:C:C(:C:C:C:5:C:4)C4=CC5(C=C6C7:C:C:C8:C:C(:C:C:C:8:C:7)C7=CC8(C=C9C%10:C:C:C%11:C:C(:C:C:C:%11:C:%10)C%10=CC%11(C=C%12C%13:C:C:C%14:C:C(:C:C:C:%14:C:%13)C(=C1)C3C(=C2)C1:C:C:C2:C:C(:C:C:C:2:C:1)C1=CC2(C=C3C%13:C:C:C%14:C:C(:C:C:C:%14:C:%13)C%13=CC%14(C=C(C%15:C:C:C%16:C:C(:C:C:C:%16:C:%15)C(=C5)C46)C%13C(=C%14)C4:C:C:C5:C:C(:C:C:C:5:C:4)C4=CC5(C=C(C6:C:C:C%13:C:C(:C:C:C:%13:C:6)C(=C8)C79)C4C(=C5)C4:C:C:C5:C:C(:C:C:C:5:C:4)C4=CC5(C=C(C6:C:C:C7:C:C(:C:C:C:7:C:6)C(=C%11)C%12%10)C4C(=C5)C4:C:C:C5:C:C(:C:C:C:5:C:4)C(=C2)C13)C1:C:C:C2:C:C(:C:C:C:2:C:1)C(:O):O)C1:C:C:C2:C:C(:C:C:C:2:C:1)C(:O):O)C1:C:C:C2:C:C(:C:C:C:2:C:1)C(:O):O)C1:C:C:C2:C:C(:C:C:C:2:C:1)C(:O):O)C1:C:C:C2:C:C(:C:C:C:2:C:1)C(:O):O)C1:C:C:C2:C:C(:C:C:C:2:C:1)C(:O):O)C1:C:C:C2:C:C(:C:C:C:2:C:1)C(:O):O,1
SR_dnr_v1-4c_B_Ch_v2-4c_Cu_1_Ch_v3-3c_Cu_imadazoline_Ch_ntn_edge_1DoU_Ch_1x1x2,0.10867,0.90248,0.314855,3773.88,1188.22,35.40875,33.82952,103224.9167,,,,984,,252,240,240,C33Cu8H21N12O8,0.108108108,"3,4","3c_Cu_imadazoline_Ch,4c_Cu_1_Ch","36,14",C1:N:N:C:C:1C1:C:C(C2:C:N:N:C:2):C(:C:C:1C1:C:N:N:C:1)C1:C:N:N:C:1___O:C(:O)C=CC1:C:N:N:C:1,1
SR_epa_v1-6c_B_Ch_v2-6c_Mg_1_Ch_v3-4c_pyrene_Ch_2B_4H_Ch_1x1x1,0.44654,0.82922,0.337263,5318.09,1793.6,20.61971,10.3666,72184.52342,,,,1476,,90,90,36,C49H28Mg1O4,0.012345679,6,6c_Mg_1_Ch,,None,1
SR_eft_v1-4c_porphyrin_Ch_v2-8c_Co_2_Ch_v3-3c_B_Ch_ntn_edge_2x2x3,1.57235,0.6907,0.759037,2425.99,1841.41,8.75533,7.64138,37129.74976,,,,1476,,240,240,192,C60Cl1Co4H30N28,0.033613445,8,8c_Co_2_Ch,118,C1:N:N:N:C1C1:C:C(:C:C(:C:1)C1:C2:C:C:C(:N:2):C(C2:C:C(:C:C(:C:2)C2C:N:N:N:2)C2C:N:N:N:2):C2:C:C:C(:[NH]:2):C(C2:C:C(:C:C(:C:2)C2C:N:N:N:2)C2C:N:N:N:2):C2:C:C:C(:N:2):C(C2:C:C(:C:C(:C:2)C2C:N:N:N:2)C2C:N:N:N:2):C2:C:C:C:1:[NH]:2)C1C:N:N:N:1,1
SR_dpc_v1-3c_B_Ch_v2-4c_In_1_Ch_v3-3c_B_Ch_1B_2OH_Ch_1x1x1,0.0902,0.89242,0.248556,5645.26,1403.16,25.09064,18.13899,365472.1369,,,,5232,,384,384,384,C56H32In1O20,0.009259259,4,4c_In_1_Ch,162,O:C(:O)C1:C:C(O):C(:C:C:1O)C1:C:C(:C:C(:C:1)C1:C:C(O):C(:C:C:1O)C1:C:C(:C:C(:C:1)C1:C:C(O):C(:C:C:1O)C1:C:C(:C:C(:C:1)C1:C:C(O):C(:C:C:1O)C(:O):O)C1:C:C(O):C(:C:C:1O)C(:O):O)C1:C:C(O):C(:C:C:1O)C1:C:C(:C:C(:C:1)C1:C:C(O):C(:C:C:1O)C(:O):O)C1:C:C(O):C(:C:C:1O)C(:O):O)C1:C:C(O):C(:C:C:1O)C(:O):O,1
SR_eci_v1-8c_Zr_1_Ch_1B_2NH2_Ch_2x1x1,0.20467,0.62966,1.06301,1417.56,1506.88,10.59781,5.52809,41078.58404,,,,1888,,768,768,256,C16H20N4O16Zr3,0.053571429,8,8c_Zr_1_Ch,20,NC1:C:C(C(:O):O):C(N):C:C:1C(:O):O,1
SR_dpb_v1-3c_Cu_imadazoline_Ch_v2-6c_B_Ch_v3-3c_B_Ch_ntn_edge_1B_4F_Ch_1x1x1,0.14034,0.852,0.448347,3896.18,1746.84,20.16701,11.43149,260975.7982,,,,4704,,576,576,576,C25Cu3F8H7N6,0.065217391,3,3c_Cu_imadazoline_Ch,"30,108",C1:N:N:C:C:1C1:C:C(:C:C(:C:1)C1:C:N:N:C:1)C1:C:N:N:C:1___FC1:C(F):C(:C(F):C(F):C:1C1:C:N:N:C:1)C1:C(C2:C(F):C(F):C(C3:C:N:N:C:3):C(F):C:2F):C(C2:C(F):C(F):C(C3:C:N:N:C:3):C(F):C:2F):C(C2:C(F):C(F):C(C3:C:N:N:C:3):C(F):C:2F):C(C2:C(F):C(F):C(C3:C:N:N:C:3):C(F):C:2F):C:1C1:C(F):C(F):C(C2:C:N:N:C:2):C(F):C:1F,1
SR_epa_v1-6c_Mg_1_Ch_v2-6c_Mg_1_Ch_v3-4c_B_Ch_ntn_edge_1B_2NH2_Ch_2x2x1,0.21483,0.7161,0.634067,2823.79,1790.47,15.1711,7.03993,152890.0015,,,,4608,,1440,1440,576,C23H17Mg4N4O16,0.066666667,6,6c_Mg_1_Ch,"76,6",NC1:C:C(:C(N):C:C:1C(:O):O)C1:C:C(C2:C:C(N):C(:C:C:2N)C(:O):O):C(:C:C:1C1:C:C(N):C(:C:C:1N)C(:O):O)C1:C:C(N):C(:C:C:1N)C(:O):O___O:C(:O)C(:O):O,1
SR_dni_v1-8c_Co_1_Ch_v2-3c_triazine_Ch_v3-3c_triazine_Ch_1B_2furan_Ch_1x1x1,0.12677,0.90536,0.229627,5232,1201.41,38.70769,11.49335,125564.5808,,,,1518,,120,120,96,C144Co4H48N16O41,0.016064257,8,8c_Co_1_Ch,186,O:C(:O)C1:C:C2:C:C3:O:C(:C:C:3:C:C:2:O:1)C1:N:C(:N:C(:N:1)C1:C:C2:C:C3:O:C(:C:C:3:C:C:2:O:1)C1:N:C(:N:C(:N:1)C1:C:C2:C:C3:O:C(:C:C:3:C:C:2:O:1)C1:N:C(:N:C(:N:1)C1:C:C2:C:C3:O:C(:C:C:3:C:C:2:O:1)C(:O):O)C1:C:C2:C:C3:O:C(:C:C:3:C:C:2:O:1)C(:O):O)C1:C:C2:C:C3:O:C(:C:C:3:C:C:2:O:1)C1:N:C(:N:C(:N:1)C1:C:C2:C:C3:O:C(:C:C:3:C:C:2:O:1)C(:O):O)C1:C:C2:C:C3:O:C(:C:C:3:C:C:2:O:1)C(:O):O)C1:C:C2:C:C3:O:C(:C:C:3:C:C:2:O:1)C(:O):O,1
SR_epe_v1-4c_Cu_1_Ch_v2-3c_pyrrole_Ch_v3-4c_Cu_1_Ch_1B_2CH3_Ch_1x1x1,0.0671,0.92,0.178485,4584.02,818.18,51.38679,23.7071,269668.8815,,,,3144,,324,288,288,C62Cu3H52N2O12,0.0234375,4,4c_Cu_1_Ch,64,CC1:C:C(:C(C):C:C:1C(:O):O)C1:C:C:C(C2:C:C(C):C(:C:C:2C)C(:O):O):N:1C1:C:C(C):C(:C:C:1C)C(:O):O,1
SR_epo_v1-3c_triazine_Ch_v2-6c_Zn_1_Ch_v3-4c_porphyrin_Ch_1B_4CN_Ch_1x1x1,0.06092,0.80738,0.456245,3902.79,1780.63,20.87487,13.27122,75437.45378,,,,1540,,128,128,96,C240H15N96O26Zn8,0.021220159,6,6c_Zn_1_Ch,250,N#CC1:C(C#N):C(C2:N:C(:N:C(:N:2)C2:C(C#N):C(C#N):C(:C(C#N):C:2C#N)C2:C3:C:C:C(:N:3):C(C3:C(C#N):C(C#N):C(C4:N:C(:N:C(:N:4)C4:C(C#N):C(C#N):C(C(:O):O):C(C#N):C:4C#N)C4:C(C#N):C(C#N):C(C(:O):O):C(C#N):C:4C#N):C(C#N):C:3C#N):C3:C:C:C(:[NH]:3):C(C3:C(C#N):C(C#N):C(C4:N:C(:N:C(:N:4)C4:C(C#N):C(C#N):C(C(:O):O):C(C#N):C:4C#N)C4:C(C#N):C(C#N):C(C(:O):O):C(C#N):C:4C#N):C(C#N):C:3C#N):C3:C:C:C(:N:3):C(C3:C(C#N):C(C#N):C(C4:N:C(:N:C(:N:4)C4:C(C#N):C(C#N):C(C(:O):O):C(C#N):C:4C#N)C4:C(C#N):C(C#N):C(C(:O):O):C(C#N):C:4C#N):C(C#N):C:3C#N):C3:C:C:C:2:[NH]:3)C2:C(C#N):C(C#N):C(C(:O):O):C(C#N):C:2C#N):C(C#N):C(C#N):C:1C(:O):O,1
SR_dna_v1-8c_Zr_1_Ch_v2-6c_B_Ch_v3-3c_B_Ch_1B_2OH_Ch_1x1x1,0.09156,0.83282,0.42252,3062.81,1294.1,35.58368,13.5197,132857.6586,,,,2952,,576,576,192,C54H38O28Zr3,0.025,8,8c_Zr_1_Ch,312,O:C(:O)C1:C:C(O):C(:C:C:1O)C1:C:C(:C:C(:C:1)C1:C:C(O):C(:C:C:1O)C1:C(C2:C:C(O):C(:C:C:2O)C2:C:C(:C:C(:C:2)C2:C:C(O):C(:C:C:2O)C(:O):O)C2:C:C(O):C(:C:C:2O)C(:O):O):C(C2:C:C(O):C(:C:C:2O)C2:C:C(:C:C(:C:2)C2:C:C(O):C(:C:C:2O)C(:O):O)C2:C:C(O):C(:C:C:2O)C(:O):O):C(C2:C:C(O):C(:C:C:2O)C2:C:C(:C:C(:C:2)C2:C:C(O):C(:C:C:2O)C(:O):O)C2:C:C(O):C(:C:C:2O)C(:O):O):C(C2:C:C(O):C(:C:C:2O)C2:C:C(:C:C(:C:2)C2:C:C(O):C(:C:C:2O)C(:O):O)C2:C:C(O):C(:C:C:2O)C(:O):O):C:1C1:C:C(O):C(:C:C:1O)C1:C:C(:C:C(:C:1)C1:C:C(O):C(:C:C:1O)C(:O):O)C1:C:C(O):C(:C:C:1O)C(:O):O)C1:C:C(O):C(:C:C:1O)C(:O):O,1
SR_dni_v1-8c_Co_1_Ch_v2-3c_B_Ch_v3-3c_triazine_Ch_1B_2F_Ch_1x1x1,0.13617,0.81256,0.485706,3525.14,1712.18,24.70966,6.95341,48437.57833,,,,1110,,120,120,96,C100Co4F24H28N12O17,0.022099448,8,8c_Co_1_Ch,135,O:C(:O)C1:C:C(F):C(:C:C:1F)C1:N:C(:N:C(:N:1)C1:C:C(F):C(:C:C:1F)C1:C:C(:C:C(:C:1)C1:C:C(F):C(:C:C:1F)C1:N:C(:N:C(:N:1)C1:C:C(F):C(:C:C:1F)C(:O):O)C1:C:C(F):C(:C:C:1F)C(:O):O)C1:C:C(F):C(:C:C:1F)C1:N:C(:N:C(:N:1)C1:C:C(F):C(:C:C:1F)C(:O):O)C1:C:C(F):C(:C:C:1F)C(:O):O)C1:C:C(F):C(:C:C:1F)C(:O):O,1
SR_eps_v1-3c_triazine_Ch_v2-8c_Zr_1_Ch_v3-4c_porphyrin_Ch_2TrU_Ch_1TrU_Ch_1x1x1,0.10377,0.80768,0.504201,3722.93,1877.1,18.57014,8.2941,21483.81599,,,,456,,144,144,48,C36H13N8O16Zr3,0.04109589,8,8c_Zr_1_Ch,114,O:C(:O)C#CC1:N:C(C#CC#CC2:C3:C:C:C(:N:3):C(C#CC#CC3:N:C(C#CC(:O):O):N:C(C#CC(:O):O):N:3):C3:C:C:C(:[NH]:3):C(C#CC#CC3:N:C(C#CC(:O):O):N:C(C#CC(:O):O):N:3):C3:C:C:C(:N:3):C(C#CC#CC3:N:C(C#CC(:O):O):N:C(C#CC(:O):O):N:3):C3:C:C:C:2:[NH]:3):N:C(C#CC(:O):O):N:1,1
SR_edq_v1-3c_B_Ch_v2-6c_Cr_1_Ch_ntn_edge_1B_4F_Ch_1x1x1,0.33349,0.7735,0.611041,3183.1,1945,13.90499,9.84485,33690.32644,,,,872,,120,120,96,C60Cr3F24H9O13,0.028301887,6,6c_Cr_1_Ch,70,O:C(:O)C1:C(F):C(F):C(C2:C:C(:C:C(:C:2)C2:C(F):C(F):C(C(:O):O):C(F):C:2F)C2:C:C(:C:C(:C:2)C2:C(F):C(F):C(C(:O):O):C(F):C:2F)C2:C(F):C(F):C(C(:O):O):C(F):C:2F):C(F):C:1F,1
SR_dnj_v1-8c_Co_1_Ch_v2-6c_B_Ch_v3-3c_triazine_Ch_2B_4Br_Ch_1x1x1,0.05458,0.84538,0.668677,1545.25,1033.28,36.62055,25.17959,154434.9765,,,,1782,,120,120,96,Br96C168Co4N12O17,0.013651877,8,8c_Co_1_Ch,438,O:C(:O)C1:C(Br):C(Br):C(:C(Br):C:1Br)C1:C(Br):C(Br):C(C2:N:C(:N:C(:N:2)C2:C(Br):C(Br):C(:C(Br):C:2Br)C2:C(Br):C(Br):C(:C(Br):C:2Br)C2:C(C3:C(Br):C(Br):C(:C(Br):C:3Br)C3:C(Br):C(Br):C(C4:N:C(:N:C(:N:4)C4:C(Br):C(Br):C(:C(Br):C:4Br)C4:C(Br):C(Br):C(C(:O):O):C(Br):C:4Br)C4:C(Br):C(Br):C(:C(Br):C:4Br)C4:C(Br):C(Br):C(C(:O):O):C(Br):C:4Br):C(Br):C:3Br):C(C3:C(Br):C(Br):C(:C(Br):C:3Br)C3:C(Br):C(Br):C(C4:N:C(:N:C(:N:4)C4:C(Br):C(Br):C(:C(Br):C:4Br)C4:C(Br):C(Br):C(C(:O):O):C(Br):C:4Br)C4:C(Br):C(Br):C(:C(Br):C:4Br)C4:C(Br):C(Br):C(C(:O):O):C(Br):C:4Br):C(Br):C:3Br):C(C3:C(Br):C(Br):C(:C(Br):C:3Br)C3:C(Br):C(Br):C(C4:N:C(:N:C(:N:4)C4:C(Br):C(Br):C(:C(Br):C:4Br)C4:C(Br):C(Br):C(C(:O):O):C(Br):C:4Br)C4:C(Br):C(Br):C(:C(Br):C:4Br)C4:C(Br):C(Br):C(C(:O):O):C(Br):C:4Br):C(Br):C:3Br):C(C3:C(Br):C(Br):C(:C(Br):C:3Br)C3:C(Br):C(Br):C(C4:N:C(:N:C(:N:4)C4:C(Br):C(Br):C(:C(Br):C:4Br)C4:C(Br):C(Br):C(C(:O):O):C(Br):C:4Br)C4:C(Br):C(Br):C(:C(Br):C:4Br)C4:C(Br):C(Br):C(C(:O):O):C(Br):C:4Br):C(Br):C:3Br):C:2C2:C(Br):C(Br):C(:C(Br):C:2Br)C2:C(Br):C(Br):C(C3:N:C(:N:C(:N:3)C3:C(Br):C(Br):C(:C(Br):C:3Br)C3:C(Br):C(Br):C(C(:O):O):C(Br):C:3Br)C3:C(Br):C(Br):C(:C(Br):C:3Br)C3:C(Br):C(Br):C(C(:O):O):C(Br):C:3Br):C(Br):C:2Br)C2:C(Br):C(Br):C(:C(Br):C:2Br)C2:C(Br):C(Br):C(C(:O):O):C(Br):C:2Br):C(Br):C:1Br,1
SR_dni_v1-8c_Co_1_Ch_v2-3c_triazine_Ch_v3-3c_B_Ch_2TrU_Ch_1TrU_Ch_1x1x1,0.10954,0.8395,0.384999,4732.89,1822.16,22.72324,6.97513,36041.64896,,,,630,,120,120,96,C68Co4H12N4O17,0.03960396,8,8c_Co_1_Ch,75,O:C(:O)C#CC1:C:C(C#CC#CC2:N:C(C#CC#CC3:C:C(C#CC(:O):O):C:C(C#CC(:O):O):C:3):N:C(C#CC#CC3:C:C(C#CC(:O):O):C:C(C#CC(:O):O):C:3):N:2):C:C(C#CC(:O):O):C:1,1
SR_epa_v1-6c_Mg_1_Ch_v2-6c_Mg_1_Ch_v3-4c_pyrene_Ch_2B_fused_Ch_1x1x1,0.27357,0.85264,0.314174,5143.1,1615.83,22.60046,12.5334,102017.7655,,,,1638,,360,360,144,C46H25Mg4O16,0.045977011,6,6c_Mg_1_Ch,"22,98",O:C(:O)C1:C:C:C2:C:C(:C:C:C:2:C:1)C(:O):O___O:C(:O)C1:C:C:C2:C:C(:C:C:C:2:C:1)C1:C:C(C2:C:C:C3:C:C(:C:C:C:3:C:2)C(:O):O):C2:C:C:C3:C(:C:C(C4:C:C:C5:C:C(:C:C:C:5:C:4)C(:O):O):C4:C:C:C:1:C:2:C:4:3)C1:C:C:C2:C:C(:C:C:C:2:C:1)C(:O):O,1
SR_eci_v1-8c_Co_1_Ch_1B_4F_Ch_2x2x1,0.1786,0.6035,1.23816,1122.61,1389.97,8.42442,5.56945,51384.86897,,,,2208,,640,640,512,C32Co4F16O17,0.061538462,8,8c_Co_1_Ch,16,O:C(:O)C1:C(F):C(F):C(C(:O):O):C(F):C:1F,1
SR_eft_v1-4c_porphyrin_Ch_v2-8c_Mn_1_Ch_v3-3c_pyrrole_Ch_1B_2NH2_Ch_1x1x2,0.11226,0.78674,0.470583,4257.15,2003.34,12.28001,10.22644,19532.68614,,,,550,,40,40,32,C116Cl1H90Mn4N64,0.014760148,8,8c_Mn_1_Ch,270,NC1:C:C(:C(N):C:C:1C1:N:N:N:N:1)C1:C:C:C(C2:C:C(N):C(:C:C:2N)C2:C3:C:C:C(:N:3):C(C3:C:C(N):C(:C:C:3N)C3:C:C:C(C4:C:C(N):C(:C:C:4N)C4:N:N:N:N:4):N:3C3:C:C(N):C(:C:C:3N)C3:N:N:N:N:3):C3:C:C:C(:[NH]:3):C(C3:C:C(N):C(:C:C:3N)C3:C:C:C(C4:C:C(N):C(:C:C:4N)C4:N:N:N:N:4):N:3C3:C:C(N):C(:C:C:3N)C3:N:N:N:N:3):C3:C:C:C(:N:3):C(C3:C:C(N):C(:C:C:3N)C3:C:C:C(C4:C:C(N):C(:C:C:4N)C4:N:N:N:N:4):N:3C3:C:C(N):C(:C:C:3N)C3:N:N:N:N:3):C3:C:C:C:2:[NH]:3):N:1C1:C:C(N):C(:C:C:1N)C1:N:N:N:N:1,1
SR_dni_v1-8c_Co_1_Ch_v2-3c_B_Ch_v3-3c_B_Ch_1B_2SH_Ch_1x1x1,0.12948,0.77544,0.53499,3232.53,1729.37,23.55951,5.68165,50117.39027,,,,1326,,120,120,96,C112Co4H64O17S24,0.01843318,8,8c_Co_1_Ch,162,O:C(:O)C1:C:C(S):C(:C:C:1S)C1:C:C(:C:C(:C:1)C1:C:C(S):C(:C:C:1S)C1:C:C(:C:C(:C:1)C1:C:C(S):C(:C:C:1S)C1:C:C(:C:C(:C:1)C1:C:C(S):C(:C:C:1S)C(:O):O)C1:C:C(S):C(:C:C:1S)C(:O):O)C1:C:C(S):C(:C:C:1S)C1:C:C(:C:C(:C:1)C1:C:C(S):C(:C:C:1S)C(:O):O)C1:C:C(S):C(:C:C:1S)C(:O):O)C1:C:C(S):C(:C:C:1S)C(:O):O,1
SR_eps_v1-3c_pyrrole_Ch_v2-8c_Co_2_Ch_v3-4c_porphyrin_Ch_3B_fused_8H_Ch_1x1x1,0.18774,0.91292,0.187826,6028.94,1132.39,39.64692,14.96078,92426.36235,,,,1137,,60,60,48,C220Cl1Co4H122N32,0.010666667,8,8c_Co_2_Ch,374,C1:N:N:N:C1C1:C:C:C2:C(:C:C:C3:C:C(:C:C:C:3:2)C2:C:C:C(C3:C:C:C4:C(:C:C:C5:C:C(:C:C:C:5:4)C4C:N:N:N:4):C:3):N:2C2:C:C:C3:C(:C:C:C4:C:C(:C:C:C:4:3)C3:C4:C:C:C(:N:4):C(C4:C:C:C5:C(:C:C:C6:C:C(:C:C:C:6:5)N5:C(:C:C:C:5C5:C:C:C6:C(:C:C:C7:C:C(:C:C:C:7:6)C6C:N:N:N:6):C:5)C5:C:C:C6:C(:C:C:C7:C:C(:C:C:C:7:6)C6C:N:N:N:6):C:5):C:4):C4:C:C:C(:[NH]:4):C(C4:C:C:C5:C(:C:C:C6:C:C(:C:C:C:6:5)N5:C(:C:C:C:5C5:C:C:C6:C(:C:C:C7:C:C(:C:C:C:7:6)C6C:N:N:N:6):C:5)C5:C:C:C6:C(:C:C:C7:C:C(:C:C:C:7:6)C6C:N:N:N:6):C:5):C:4):C4:C:C:C(:N:4):C(C4:C:C:C5:C(:C:C:C6:C:C(:C:C:C:6:5)N5:C(:C:C:C:5C5:C:C:C6:C(:C:C:C7:C:C(:C:C:C:7:6)C6C:N:N:N:6):C:5)C5:C:C:C6:C(:C:C:C7:C:C(:C:C:C:7:6)C6C:N:N:N:6):C:5):C:4):C4:C:C:C:3:[NH]:4):C:2):C:1,1
SR_dna_v1-8c_Zr_1_Ch_v2-6c_B_Ch_v3-3c_B_Ch_ntn_edge_1x1x1,0.21519,0.60928,1.17482,0,0,19.42044,2.5874,25780.81164,,,,1224,,576,576,192,C18H14O16Zr3,0.0625,8,8c_Zr_1_Ch,96,O:C(:O)C1:C:C(:C:C(:C:1)C1:C(C2:C:C(:C:C(:C:2)C(:O):O)C(:O):O):C(C2:C:C(:C:C(:C:2)C(:O):O)C(:O):O):C(C2:C:C(:C:C(:C:2)C(:O):O)C(:O):O):C(C2:C:C(:C:C(:C:2)C(:O):O)C(:O):O):C:1C1:C:C(:C:C(:C:1)C(:O):O)C(:O):O)C(:O):O,1
SR_epo_v1-3c_triazine_Ch_v2-6c_CdZn_1_Ch_v3-4c_porphyrin_Ch_ntn_edge_1x1x1,0.11352,0.70758,0.981545,1764.91,1732.34,13.61835,9.04251,15520.03249,,,,532,,128,128,96,C60Cd6H15N24O26Zn2,0.064,6,6c_CdZn_1_Ch,82,O:C(:O)C1:N:C(:N:C(:N:1)C1:C2:C:C:C(:N:2):C(C2:N:C(:N:C(:N:2)C(:O):O)C(:O):O):C2:C:C:C(:[NH]:2):C(C2:N:C(:N:C(:N:2)C(:O):O)C(:O):O):C2:C:C:C(:N:2):C(C2:N:C(:N:C(:N:2)C(:O):O)C(:O):O):C2:C:C:C:1:[NH]:2)C(:O):O,1
SR_dpa_v1-3c_B_Ch_v2-3c_B_Ch_v3-6c_Mg_1_Ch_1TrU_Ch_1DoU_Ch_1x1x1,0.4982,0.73062,0.579831,4148.81,2405.61,8.8262,5.53913,55106.23662,,,,1728,,480,480,192,C9H4Mg1O4,0.058823529,6,6c_Mg_1_Ch,78,O:C(:O)C#CC1:C:C(C#CC(:O):O):C:C(C=CC2:C:C(C=CC3:C:C(C#CC(:O):O):C:C(C#CC(:O):O):C:3):C:C(C=CC3:C:C(C#CC(:O):O):C:C(C#CC(:O):O):C:3):C:2):C:1,1
SR_epo_v1-3c_pyrrole_Ch_v2-6c_Zn_1_Ch_v3-4c_porphyrin_Ch_2TrU_Ch_1TrU_Ch_1x1x1,0.07659,0.8436,0.400108,4910.22,1964.62,20.0356,10.81424,41567.86041,,,,748,,128,128,96,C114H27N12O26Zn8,0.044692737,6,6c_Zn_1_Ch,118,O:C(:O)C#CC1:C:C:C(C#CC(:O):O):N:1C#CC#CC1:C2:C:C:C(:N:2):C(C#CC#CN2:C(C#CC(:O):O):C:C:C:2C#CC(:O):O):C2:C:C:C(:[NH]:2):C(C#CC#CN2:C(C#CC(:O):O):C:C:C:2C#CC(:O):O):C2:C:C:C(:N:2):C(C#CC#CN2:C(C#CC(:O):O):C:C:C:2C#CC(:O):O):C2:C:C:C:1:[NH]:2,1
SR_dna_v1-8c_Co_1_Ch_v2-6c_B_Ch_v3-3c_B_Ch_1B_2CN_Ch_ntn_edge_1x1x1,0.1099,0.68246,0.740686,1751.85,1297.57,21.54429,8.97094,52770.67042,,,,1980,,240,240,192,C100Co4H28N16O17,0.02484472,8,8c_Co_1_Ch,240,N#CC1:C:C(C2:C:C(:C:C(:C:2)C2:C(C3:C:C(:C:C(:C:3)C3:C:C(C#N):C(:C:C:3C#N)C(:O):O)C3:C:C(C#N):C(:C:C:3C#N)C(:O):O):C(C3:C:C(:C:C(:C:3)C3:C:C(C#N):C(:C:C:3C#N)C(:O):O)C3:C:C(C#N):C(:C:C:3C#N)C(:O):O):C(C3:C:C(:C:C(:C:3)C3:C:C(C#N):C(:C:C:3C#N)C(:O):O)C3:C:C(C#N):C(:C:C:3C#N)C(:O):O):C(C3:C:C(:C:C(:C:3)C3:C:C(C#N):C(:C:C:3C#N)C(:O):O)C3:C:C(C#N):C(:C:C:3C#N)C(:O):O):C:2C2:C:C(:C:C(:C:2)C2:C:C(C#N):C(:C:C:2C#N)C(:O):O)C2:C:C(C#N):C(:C:C:2C#N)C(:O):O)C2:C:C(C#N):C(:C:C:2C#N)C(:O):O):C(C#N):C:C:1C(:O):O,1
SR_eft_v1-4c_porphyrin_Ch_v2-8c_Zr_1_Ch_v3-3c_B_Ch_1B_4F_Ch_2x1x2,0.11065,0.8106,0.51783,3205.88,1660.1,14.53496,11.66291,45599.11828,,,,1008,,192,192,64,C62F24H19N2O16Zr3,0.024390244,8,8c_Zr_1_Ch,214,O:C(:O)C1:C(F):C(F):C(C2:C:C(:C:C(:C:2)C2:C(F):C(F):C(:C(F):C:2F)C2:C3:C:C:C(:N:3):C(C3:C(F):C(F):C(C4:C:C(:C:C(:C:4)C4:C(F):C(F):C(C(:O):O):C(F):C:4F)C4:C(F):C(F):C(C(:O):O):C(F):C:4F):C(F):C:3F):C3:C:C:C(:[NH]:3):C(C3:C(F):C(F):C(C4:C:C(:C:C(:C:4)C4:C(F):C(F):C(C(:O):O):C(F):C:4F)C4:C(F):C(F):C(C(:O):O):C(F):C:4F):C(F):C:3F):C3:C:C:C(:N:3):C(C3:C(F):C(F):C(C4:C:C(:C:C(:C:4)C4:C(F):C(F):C(C(:O):O):C(F):C:4F)C4:C(F):C(F):C(C(:O):O):C(F):C:4F):C(F):C:3F):C3:C:C:C:2:[NH]:3)C2:C(F):C(F):C(C(:O):O):C(F):C:2F):C(F):C:1F,1
SR_dmd_v1-4c_In_1_Ch_v2-3c_B_Ch_1B_4Br_Ch_2x2x1,0.04583,0.85336,0.609397,2448.5,1492.11,17.13793,12.40718,52315.46188,,,,648,,64,64,64,Br20C46H6In1O8,0.0125,4,4c_In_1_Ch,80,O:C(:O)C1:C(Br):C(Br):C(C2:C:C(:C:C(:C:2)C2:C(Br):C(Br):C(C3:C:C(:C:C(:C:3)C3:C(Br):C(Br):C(C(:O):O):C(Br):C:3Br)C3:C(Br):C(Br):C(C(:O):O):C(Br):C:3Br):C(Br):C:2Br)C2:C(Br):C(Br):C(C(:O):O):C(Br):C:2Br):C(Br):C:1Br,1
SR_ecp_v1-8c_Zr_1_Ch_1B_4F_Ch_1x2x2,0.12675,0.59002,1.30513,978.644,1277.26,10.57956,7.81605,65242.35974,,,,2448,,1152,1152,384,C16F8H8O16Zr3,0.0625,8,8c_Zr_1_Ch,16,O:C(:O)C1:C(F):C(F):C(C(:O):O):C(F):C:1F,1
SR_dpd_v1-4c_bicyclooctane_Ch_v2-4c_Cu_1_Ch_v3-4c_1anC_Ch_1B_2thiophene_Ch_1x1x1,0.0729,0.9127,0.21668,5307.49,1150.03,35.02869,18.84983,265732.8185,,,,2776,,216,192,192,C205Cu6H80O24S32,0.017595308,4,4c_Cu_1_Ch,341,O:C(:O)C1:C:C2:C:C3:S:C(:C:C:3:C:C:2:S:1)C1=CC2(C=C(C3:C:C4:C:C5:S:C(:C:C:5:C:C:4:S:3)C(:O):O)C1C(=C2)C1:C:C2:C:C3:S:C(:C:C:3:C:C:2:S:1)C(:O):O)C1:C:C2:C:C3:S:C(:C:C:3:C:C:2:S:1)C(C1:C:C2:C:C3:S:C(:C:C:3:C:C:2:S:1)C12C=C(C3:C:C4:C:C5:S:C(:C:C:5:C:C:4:S:3)C(:O):O)C(C(=C1)C1:C:C3:C:C4:S:C(:C:C:4:C:C:3:S:1)C(:O):O)C(=C2)C1:C:C2:C:C3:S:C(:C:C:3:C:C:2:S:1)C(:O):O)(C1:C:C2:C:C3:S:C(:C:C:3:C:C:2:S:1)C12C=C(C3:C:C4:C:C5:S:C(:C:C:5:C:C:4:S:3)C(:O):O)C(C(=C1)C1:C:C3:C:C4:S:C(:C:C:4:C:C:3:S:1)C(:O):O)C(=C2)C1:C:C2:C:C3:S:C(:C:C:3:C:C:2:S:1)C(:O):O)C1:C:C2:C:C3:S:C(:C:C:3:C:C:2:S:1)C12C=C(C3:C:C4:C:C5:S:C(:C:C:5:C:C:4:S:3)C(:O):O)C(C(=C1)C1:C:C3:C:C4:S:C(:C:C:4:C:C:3:S:1)C(:O):O)C(=C2)C1:C:C2:C:C3:S:C(:C:C:3:C:C:2:S:1)C(:O):O,1
SR_dpa_v1-3c_B_Ch_v2-3c_B_Ch_v3-6c_Mg_1_Ch_1B_2OH_Ch_ntn_edge_1x1x1,0.25981,0.62808,0.827271,954.285,789.452,7.13891,3.75123,52314.53479,,,,2496,,480,480,192,C12H7Mg1O6,0.04,6,6c_Mg_1_Ch,126,O:C(:O)C1:C:C(O):C(:C:C:1O)C1:C:C(:C:C(:C:1)C1:C:C(O):C(:C:C:1O)C(:O):O)C1:C:C(:C:C(:C:1)C1:C:C(:C:C(:C:1)C1:C:C(O):C(:C:C:1O)C(:O):O)C1:C:C(O):C(:C:C:1O)C(:O):O)C1:C:C(:C:C(:C:1)C1:C:C(O):C(:C:C:1O)C(:O):O)C1:C:C(O):C(:C:C:1O)C(:O):O,1
SR_dnj_v1-8c_Co_1_Ch_v2-6c_B_Ch_v3-3c_B_Ch_2B_2NO2_Ch_1x1x1,0.07309,0.86826,0.32114,3299.1,1059.48,37.01953,25.88743,153215.0599,,,,2430,,120,120,96,C180Co4H60N48O113,0.009975062,8,8c_Co_1_Ch,,None,1
SR_eps_v1-3c_B_Ch_v2-8c_Co_1_Ch_v3-4c_porphyrin_Ch_ntn_edge_1B_4F_Ch_1x1x1,0.12677,0.79334,0.552928,2917.98,1613.44,22.23881,8.32654,21579.0926,,,,537,,60,60,48,C100Co4F32H22N4O17,0.022857143,8,8c_Co_1_Ch,174,O:C(:O)C1:C(F):C(F):C(C2:C:C(:C:C(:C:2)C2:C3:C:C:C(:N:3):C(C3:C:C(:C:C(:C:3)C3:C(F):C(F):C(C(:O):O):C(F):C:3F)C3:C(F):C(F):C(C(:O):O):C(F):C:3F):C3:C:C:C(:[NH]:3):C(C3:C:C(:C:C(:C:3)C3:C(F):C(F):C(C(:O):O):C(F):C:3F)C3:C(F):C(F):C(C(:O):O):C(F):C:3F):C3:C:C:C(:N:3):C(C3:C:C(:C:C(:C:3)C3:C(F):C(F):C(C(:O):O):C(F):C:3F)C3:C(F):C(F):C(C(:O):O):C(F):C:3F):C3:C:C:C:2:[NH]:3)C2:C(F):C(F):C(C(:O):O):C(F):C:2F):C(F):C:1F,1
SR_epc_v1-6c_Fe_1_Ch_v2-4c_1anC_Ch_v3-4c_B_Ch_1B_2Br_Ch_1x1x1,0.14208,0.71096,1.00572,1572.68,1581.67,15.90146,9.60695,25507.78636,,,,724,,120,120,96,Br24C97Fe6H28O26,0.034285714,6,6c_Fe_1_Ch,"53,60",O:C(:O)C1:C:C(Br):C(:C:C:1Br)C(C1:C:C(Br):C(:C:C:1Br)C(:O):O)(C1:C:C(Br):C(:C:C:1Br)C(:O):O)C1:C:C(Br):C(:C:C:1Br)C(:O):O___O:C(:O)C1:C:C(Br):C(:C:C:1Br)C1:C:C(C2:C:C(Br):C(:C:C:2Br)C(:O):O):C(:C:C:1C1:C:C(Br):C(:C:C:1Br)C(:O):O)C1:C:C(Br):C(:C:C:1Br)C(:O):O,1
SR_dmf_v1-4c_In_1_Ch_v2-3c_triazine_Ch_2B_2SH_Ch_ntn_edge_1x2x2,0.16483,0.7889,0.508897,4811.95,2448.79,11.80733,9.24202,45039.6969,,,,1064,,64,64,64,C64H32In1N12O8S16,0.007575758,4,4c_In_1_Ch,264,O:C(:O)C1:C:C(S):C(:C:C:1S)C1:C:C(S):C(:C:C:1S)C1:N:C2:N:C(:N:1)C1:N:C(:N:C(:N:1)C1:C:C(S):C(:C:C:1S)C1:C:C(S):C(:C:C:1S)C(:O):O)C1:N:C(:N:C(:N:1)C1:C:C(S):C(:C:C:1S)C1:C:C(S):C(:C:C:1S)C(:O):O)C1:N:C(:N:C(:N:1)C1:C:C(S):C(:C:C:1S)C1:C:C(S):C(:C:C:1S)C(:O):O)C1:N:C(:N:C(:N:1)C1:C:C(S):C(:C:C:1S)C1:C:C(S):C(:C:C:1S)C(:O):O)C1:N:C(:N:C(:N:1)C1:C:C(S):C(:C:C:1S)C1:C:C(S):C(:C:C:1S)C(:O):O)C1:N:C(:N:C(:N:1)C1:C:C(S):C(:C:C:1S)C1:C:C(S):C(:C:C:1S)C(:O):O)C1:N:C2:N:C(:N:1)C1:C:C(S):C(:C:C:1S)C1:C:C(S):C(:C:C:1S)C(:O):O,1