name,k,VF,density,ASA_grav,ASA_vol,LPD,PLD,volume,,,,N_atoms,,N_metal_containing_bonds,N_metal_nonmetal_bonds,N_metal_linker_bonds,formula,metal_nonmetal_ratio,metal_node_connectivity,metal_node_name,N_atoms_per_linker,linker_SMILES,N_ccs
SR_bpu_v1-3c_Cu_imadazoline_Ch_v2-3c_pyrrole_Ch_2B_2F_Ch_1x1x1,0.03949,0.95558,0.107922,6032.27,651.012,43.66889,28.97652,563419.6448,,,,3072,,144,144,144,C71Cu3F18H28N8,0.024,3,3c_Cu_imadazoline_Ch,"324,34",FC1:C:C(:C(F):C:C:1C1:C:N:N:C:1)C1:C:C(F):C(:C:C:1F)C1:C:C:C2C3:C:C(F):C(:C:C:3F)C3:C:C(F):C(:C:C:3F)C3:C:C:C(C4:C:C(F):C(:C:C:4F)C4:C:C(F):C(:C:C:4F)C4:C:N:N:C:4):N:3C3:C:C(F):C(:C:C:3F)C3:C:C(F):C(:C:C:3F)N3:C(:C:C:C:3C3:C:C(F):C(:C:C:3F)C3:C:C(F):C(:C:C:3F)C3:C:C:C(C4:C:C(F):C(:C:C:4F)C4:C:C(F):C(:C:C:4F)C4:C:N:N:C:4):N:3C3:C:C(F):C(:C:C:3F)C3:C:C(F):C(:C:C:3F)N3:C(:C:C:C:3C3:C:C(F):C(:C:C:3F)C3:C:C(F):C(:C:C:3F)C3:C:C:C(C4:C:C(F):C(:C:C:4F)C4:C:C(F):C(:C:C:4F)C4:C:N:N:C:4):N:3C3:C:C(F):C(:C:C:3F)C3:C:C(F):C(:C:C:3F)N:1:2)C1:C:C(F):C(:C:C:1F)C1:C:C(F):C(:C:C:1F)C1:C:N:N:C:1)C1:C:C(F):C(:C:C:1F)C1:C:C(F):C(:C:C:1F)C1:C:N:N:C:1___FC1:C:C(:C(F):C:C:1C1:C:N:N:C:1)C1:C:C(F):C(:C:C:1F)C1:C:N:N:C:1,1
SR_bpq_v1-6c_Zr_1_Ch_v2-4c_B_Ch_1B_2CN_Ch_ntn_edge_1x2x1,0.09584,0.77948,0.594252,2556.37,1519.13,13.59883,12.00309,38720.98644,,,,976,,384,384,96,C22H16N4O16Zr3,0.051724138,6,6c_Zr_1_Ch,"68,6",N#CC1:C:C(:C(C#N):C:C:1C(:O):O)C1:C:C(C2:C:C(C#N):C(:C:C:2C#N)C(:O):O):C(:C:C:1C1:C:C(C#N):C(:C:C:1C#N)C(:O):O)C1:C:C(C#N):C(:C:C:1C#N)C(:O):O___O:C(:O)C(:O):O,1
SR_brk_v1-3c_B_Ch_v2-3c_B_Ch_v3-6c_CdZn_1_Ch_ntn_edge_1B_4CN_Ch_1x2x2,0.10045,0.64786,1.02105,1622.2,1656.36,7.61653,4.99859,70846.65397,,,,2656,,512,512,384,C48Cd3H6N12O13Zn1,0.050632911,6,6c_CdZn_1_Ch,"60,18",N#CC1:C(C#N):C(C2:C:C(:C:C(:C:2)C2:C(C#N):C(C#N):C(C(:O):O):C(C#N):C:2C#N)C2:C(C#N):C(C#N):C(C(:O):O):C(C#N):C:2C#N):C(C#N):C(C#N):C:1C(:O):O___O:C(:O)C1:C:C(:C:C(:C:1)C(:O):O)C(:O):O,1
SR_bpk_v1-3c_Cu_imadazoline_Ch_v2-3c_triazine_Ch_1TrU_Ch_1x1x1,0.26397,0.91168,0.257401,5656.62,1456.02,19.33443,14.91042,55629.48157,,,,576,,96,96,96,C6Cu1H2N3,0.090909091,3,3c_Cu_imadazoline_Ch,"16,68",C(#CC1:C:N:N:C:1)C1:C:N:N:C:1___C(#CC1:N:C2C#CC3:N:C(C#CC4:C:N:N:C:4):N:C(C#CC4:N:C(C#CC5:C:N:N:C:5):N:C(C#CC5:N:C(C#CC6:C:N:N:C:6):N:C(C#CC(:N:1):N:2):N:5):N:4):N:3)C1:C:N:N:C:1,1
SR_bpr_v1-3c_Cu_imadazoline_Ch_v2-3c_pyrrole_Ch_3B_fused_8H_Ch_1x1x1,0.0829,0.95252,0.106301,6808.26,723.725,32.72968,26.42049,735979.3796,,,,4656,,288,288,288,C55Cu3H32N7,0.031914894,3,3c_Cu_imadazoline_Ch,94,C1:C:C2:C(:C:C:C3:C:C(:C:C:C:3:2)C2:C:C:C(C3:C:C:C4:C(:C:C:C5:C:C(:C:C:C:5:4)C4:C:N:N:C:4):C:3):N:2C2:C:C:C3:C(:C:C:C4:C:C(:C:C:C:4:3)C3:C:N:N:C:3):C:2):C:C:1C1:C:N:N:C:1,1
SR_bpi_v1-3c_pyrrole_Ch_v2-3c_Cu_imadazoline_Ch_ntn_edge_1DoU_Ch_2x1x1,0.12424,0.86964,0.385515,5112.68,1971.01,14.1259,10.5094,34815.0359,,,,624,,96,96,96,C17Cu3H12N7,0.083333333,3,3c_Cu_imadazoline_Ch,"58,14",C(=CC1:C:C:C(C=CC2:C:N:N:C:2):N:1N1:C(C=CC2:C:N:N:C:2):C:C:C:1C=CC1:C:N:N:C:1)C1:C:N:N:C:1___C1:N:N:C:C:1C1:C:N:N:C:1,1
SR_brk_v1-3c_triazine_Ch_v2-3c_B_Ch_v3-6c_CdZn_1_Ch_ntn_edge_1x2x2,0.3374,0.7198,1.14123,1815.67,2072.09,8.28418,6.87086,38917.03808,,,,1216,,512,512,384,C15Cd3H3N3O13Zn1,0.117647059,6,6c_CdZn_1_Ch,"18,15",O:C(:O)C1:C:C(:C:C(:C:1)C(:O):O)C(:O):O___O:C(:O)C1:N:C(:N:C(:N:1)C(:O):O)C(:O):O,1
SR_bpg_v1-3c_Cu_imadazoline_Ch_v2-3c_B_Ch_1TrU_Ch_1x2x1,0.36941,0.9307,0.204623,6591.93,1348.86,22.42199,20.32562,74030.3181,,,,624,,96,96,96,C7Cu1H3N2,0.083333333,3,3c_Cu_imadazoline_Ch,"160,16",C(#CC1:C:C2C#CC3:C:C(C#CC4:C:N:N:C:4):C:C(C#CC4:C:C(C#CC5:C:N:N:C:5):C:C(C#CC5:C:C(C#CC6:C:N:N:C:6):C:C(C#CC6:C:C(C#CC7:C:N:N:C:7):C:C(C#CC7:C:C(C#CC8:C:N:N:C:8):C:C(C#CC8:C:C(C#CC9:C:N:N:C:9):C:C(C#CC9:C:C(C#CC%10:C:N:N:C:%10):C:C(C#CC(:C:1):C:2):C:9):C:8):C:7):C:6):C:5):C:4):C:3)C1:C:N:N:C:1___C(#CC1:C:N:N:C:1)C1:C:N:N:C:1,1
SR_brk_v1-3c_triazine_Ch_v2-3c_pyrrole_Ch_v3-6c_CdZn_1_Ch_1B_4F_Ch_ntn_edge_1x2x2,0.11884,0.69796,1.06359,1809.37,1924.43,8.97833,6.00464,63399.31239,,,,2112,,512,512,384,C31Cd3F12H2N4O13Zn1,0.064516129,6,6c_CdZn_1_Ch,"46,15",O:C(:O)C1:C(F):C(F):C(:C(F):C:1F)C1:C:C:C(C2:C(F):C(F):C(C(:O):O):C(F):C:2F):N:1C1:C(F):C(F):C(C(:O):O):C(F):C:1F___O:C(:O)C1:N:C(:N:C(:N:1)C(:O):O)C(:O):O,1
SR_bpq_v1-6c_CdZn_1_Ch_v2-4c_B_Ch_2B_2SH_Ch_ntn_edge_1x2x1,0.07027,0.83528,0.452708,3449.94,1561.81,17.34718,15.04159,55128.97454,,,,1016,,128,128,96,C60Cd3H34O13S16Zn1,0.032520325,6,6c_CdZn_1_Ch,"6,116",O:C(:O)C(:O):O___O:C(:O)C1:C:C(S):C(:C:C:1S)C1:C:C(S):C(:C:C:1S)C1:C:C(C2:C:C(S):C(:C:C:2S)C2:C:C(S):C(:C:C:2S)C(:O):O):C(:C:C:1C1:C:C(S):C(:C:C:1S)C1:C:C(S):C(:C:C:1S)C(:O):O)C1:C:C(S):C(:C:C:1S)C1:C:C(S):C(:C:C:1S)C(:O):O,1
SR_bnnt_v1-4c_Cd_1_Ch_v2-4c_Cd_1_Ch_v3-4c_Cd_1_Ch_1B_2DoU_Ch_1x1x1,0.03171,0.96246,0.0910242,6972.58,634.673,79.34754,51.27899,825710.3605,,,,3528,,576,576,576,C24Cd1H16O8,0.020833333,4,4c_Cd_1_Ch,24,O:C(:O)C=CC1:C:C:C(C=CC(:O):O):C:C:1,1
SR_boe_v1-3c_Cu_imadazoline_Ch_v2-3c_B_Ch_1B_2CN_Ch_1x1x1,0.0747,0.90372,0.252648,6412.48,1620.1,22.12706,11.70095,29744.31735,,,,360,,36,36,36,C33Cu3H13N11,0.052631579,3,3c_Cu_imadazoline_Ch,"66,26",N#CC1:C:C(C2:C:C(:C:C(:C:2)C2:C:C(C#N):C(:C:C:2C#N)C2:C:N:N:C:2)C2:C:C(C#N):C(:C:C:2C#N)C2:C:N:N:C:2):C(C#N):C:C:1C1:C:N:N:C:1___N#CC1:C:C(C2:C:N:N:C:2):C(C#N):C:C:1C1:C:N:N:C:1,1
SR_brk_v1-3c_B_Ch_v2-3c_B_Ch_v3-6c_CdZn_1_Ch_1B_2NH2_Ch_ntn_edge_1x2x2,0.13122,0.688,0.949616,2097.86,1992.17,8.24657,5.39117,64422.75046,,,,2656,,512,512,384,C36Cd3H24N6O13Zn1,0.050632911,6,6c_CdZn_1_Ch,"60,18",NC1:C:C(C2:C:C(:C:C(:C:2)C2:C:C(N):C(:C:C:2N)C(:O):O)C2:C:C(N):C(:C:C:2N)C(:O):O):C(N):C:C:1C(:O):O___O:C(:O)C1:C:C(:C:C(:C:1)C(:O):O)C(:O):O,1
SR_brk_v1-3c_triazine_Ch_v2-3c_triazine_Ch_v3-6c_CdZn_1_Ch_1B_4F_Ch_ntn_edge_1x1x2,0.10453,0.706,1.03632,2189.82,2269.35,8.06316,4.88276,32892.93839,,,,1040,,256,256,192,C30Cd3F12N6O13Zn1,0.06557377,6,6c_CdZn_1_Ch,"45,15",O:C(:O)C1:C(F):C(F):C(C2:N:C(:N:C(:N:2)C2:C(F):C(F):C(C(:O):O):C(F):C:2F)C2:C(F):C(F):C(C(:O):O):C(F):C:2F):C(F):C:1F___O:C(:O)C1:N:C(:N:C(:N:1)C(:O):O)C(:O):O,1
SR_ced_v1-3c_triazine_Ch_v2-12c_Mn_1_Ch_2B_2Br_Ch_ntn_edge_2x2x2,0.12829,0.73252,0.932077,2112.94,1969.42,12.69179,10.29056,116639.2313,,,,2584,,336,336,144,Br48C174H48Mn8N18O27,0.025396825,12,12c_Mn_1_Ch,104,OC(:O)C1:C:C(Br):C(:C:C:1Br)C1:C:C(Br):C(:C:C:1Br)C1:N:C(:N:C(:N:1)C1:C:C(Br):C(:C:C:1Br)C1:C:C(Br):C(:C:C:1Br)C(:O):O)C1:N:C(:N:C(:N:1)C1:C:C(Br):C(:C:C:1Br)C1:C:C(Br):C(:C:C:1Br)C(:O):O)C1:C:C(Br):C(:C:C:1Br)C1:C:C(Br):C(:C:C:1Br)C(O):O,1
SR_crs_v1-6c_CdZn_1_Ch_2B_2Br_Ch_1x1x1,0.03504,0.8779,0.490131,2817.78,1381.08,25.72353,17.88084,113077.3239,,,,1328,,256,256,192,Br12C42Cd3H12O13Zn1,0.050632911,6,6c_CdZn_1_Ch,26,O:C(:O)C1:C:C(Br):C(:C:C:1Br)C1:C:C(Br):C(:C:C:1Br)C(:O):O,1
SR_crsd_v1-8c_Zr_1_Ch_v2-4c_1anC_Ch_1B_4F_Ch_1x1x1,0.21499,0.43716,1.76477,0,0,5.12682,2.75666,15607.1739,,,,984,,384,384,128,C45F24H16O32Zr6,0.051282051,8,8c_Zr_1_Ch,"53,16",O:C(:O)C1:C(F):C(F):C(:C(F):C:1F)C(C1:C(F):C(F):C(C(:O):O):C(F):C:1F)(C1:C(F):C(F):C(C(:O):O):C(F):C:1F)C1:C(F):C(F):C(C(:O):O):C(F):C:1F___O:C(:O)C1:C(F):C(F):C(C(:O):O):C(F):C:1F,1
SR_cut_v1-8c_Co_1_Ch_v2-3c_B_Ch_1B_2CH3_Ch_2x2x2,0.10944,0.81196,0.404199,3851.18,1556.64,18.48199,15.33539,63990.39346,,,,1800,,160,160,128,C112Co4H92O17,0.018099548,8,8c_Co_1_Ch,110,CC1:C:C(C2:C:C(:C:C(:C:2)C2:C:C(C):C(:C:C:2C)C2:C:C(:C:C(:C:2)C2:C:C(C):C(:C:C:2C)C(:O):O)C2:C:C(C):C(:C:C:2C)C(:O):O)C2:C:C(C):C(:C:C:2C)C(:O):O):C(C):C:C:1C(:O):O,1
SR_ceh_v1-3c_B_Ch_v2-6c_Mg_1_Ch_v3-4c_bicyclooctane_Ch_ntn_edge_1B_2CF3_Ch_2x2x3,0.24161,0.53634,1.15007,55.1426,63.4177,5.57531,3.75458,79853.67732,,,,3960,,360,360,144,C28F12H10Mg1O4,0.018518519,6,6c_Mg_1_Ch,,None,1
SR_cdp_v1-4c_1anC_Ch_v2-4c_In_1_Ch_1B_2SH_Ch_ntn_edge_2x2x1,0.13394,0.6845,0.883563,2300.78,2032.88,8.10785,5.81151,34733.43948,,,,1200,,256,256,256,C33H16In2O16S8,0.02739726,4,4c_In_1_Ch,"6,61",O:C(:O)C(:O):O___O:C(:O)C1:C:C(S):C(:C:C:1S)C(C1:C:C(S):C(:C:C:1S)C(:O):O)(C1:C:C(S):C(:C:C:1S)C(:O):O)C1:C:C(S):C(:C:C:1S)C(:O):O,1
SR_cdl_v1-4c_V_1_Ch_1B_2TrU_Ch_1x1x1,0.38173,0.91058,0.211567,7108.97,1504.02,18.27002,11.32617,66084.1469,,,,672,,144,128,128,C12H4O4V1,0.05,4,4c_V_1_Ch,20,O:C(:O)C#CC1:C:C:C(C#CC(:O):O):C:C:1,1
SR_cbo_v1-4c_In_1_Ch_1B_2NH2_Ch_1x1x1,0.05981,0.87124,0.348931,4673.87,1630.86,16.73489,12.36555,57467.48209,,,,984,,192,192,192,C16H12In1N4O8,0.025,4,4c_In_1_Ch,20,NC1:C:C(C(:O):O):C(N):C:C:1C(:O):O,1
SR_ceq_v1-6c_Fe_1_Ch_v2-6c_Fe_1_Ch_v3-3c_pyrrole_Ch_1B_2indole_Ch_ntn_edge_2x2x1,0.69698,0.64084,0.923996,1057.34,976.974,7.73189,5.23148,20717.44281,,,,864,,180,180,144,C34Fe3H16N6O13,0.043478261,6,6c_Fe_1_Ch,34,O:C(:O)C1:C:C2:C:C3:[NH]:C(:C:C:3:C:C:2:[NH]:1)C1:C:C:C(C(:O):O):N:1C(:O):O,1
SR_cer_v1-3c_triazine_Ch_v2-6c_bicyclooctane_Ch_v3-6c_CdZn_1_Ch_1B_2furan_Ch_1x1x1,0.10429,0.89474,0.282127,5422.52,1529.84,19.5784,14.73506,63992.05691,,,,760,,64,64,48,C109Cd3H37N9O31Zn1,0.021505376,6,6c_CdZn_1_Ch,370,O:C(:O)C1:C:C2:C:C3:O:C(:C:C:3:C:C:2:O:1)C1:N:C(:N:C(:N:1)C1:C:C2:C:C3:O:C(:C:C:3:C:C:2:O:1)C(:O):O)C1:C:C2:C:C3:O:C(:C:C:3:C:C:2:O:1)C1=C(C2:C:C3:C:C4:O:C(:C:C:4:C:C:3:O:2)C2:N:C(:N:C(:N:2)C2:C:C3:C:C4:O:C(:C:C:4:C:C:3:O:2)C(:O):O)C2:C:C3:C:C4:O:C(:C:C:4:C:C:3:O:2)C(:O):O)C2C(=C(C3:C:C4:C:C5:O:C(:C:C:5:C:C:4:O:3)C3:N:C(:N:C(:N:3)C3:C:C4:C:C5:O:C(:C:C:5:C:C:4:O:3)C(:O):O)C3:C:C4:C:C5:O:C(:C:C:5:C:C:4:O:3)C(:O):O)C1C(=C2C1:C:C2:C:C3:O:C(:C:C:3:C:C:2:O:1)C1:N:C(:N:C(:N:1)C1:C:C2:C:C3:O:C(:C:C:3:C:C:2:O:1)C(:O):O)C1:C:C2:C:C3:O:C(:C:C:3:C:C:2:O:1)C(:O):O)C1:C:C2:C:C3:O:C(:C:C:3:C:C:2:O:1)C1:N:C(:N:C(:N:1)C1:C:C2:C:C3:O:C(:C:C:3:C:C:2:O:1)C(:O):O)C1:C:C2:C:C3:O:C(:C:C:3:C:C:2:O:1)C(:O):O)C1:C:C2:C:C3:O:C(:C:C:3:C:C:2:O:1)C1:N:C(:N:C(:N:1)C1:C:C2:C:C3:O:C(:C:C:3:C:C:2:O:1)C(:O):O)C1:C:C2:C:C3:O:C(:C:C:3:C:C:2:O:1)C(:O):O,1
SR_cer_v1-3c_triazine_Ch_v2-6c_bicyclooctane_Ch_v3-6c_CdZn_1_Ch_1B_2F_Ch_ntn_edge_2x2x1,0.13767,0.72814,0.892924,2401.11,2144.01,10.20096,7.53148,44744.72116,,,,1216,,256,256,192,C37Cd3F6H7N9O13Zn1,0.055555556,6,6c_CdZn_1_Ch,142,O:C(:O)C1:N:C(:N:C(:N:1)C1:C:C(F):C(:C:C:1F)C1=C(C2:C:C(F):C(:C:C:2F)C2:N:C(:N:C(:N:2)C(:O):O)C(:O):O)C2C(=C(C3:C:C(F):C(:C:C:3F)C3:N:C(:N:C(:N:3)C(:O):O)C(:O):O)C1C(=C2C1:C:C(F):C(:C:C:1F)C1:N:C(:N:C(:N:1)C(:O):O)C(:O):O)C1:C:C(F):C(:C:C:1F)C1:N:C(:N:C(:N:1)C(:O):O)C(:O):O)C1:C:C(F):C(:C:C:1F)C1:N:C(:N:C(:N:1)C(:O):O)C(:O):O)C(:O):O,1
SR_cdme_v1-4c_Ni_1_Ch_v2-4c_B_Ch_v3-4c_1anC_Ch_v4-4c_B_Ch_3B_fused_8H_Ch_2x2x1,0.17566,0.89272,0.232993,5854.46,1364.05,18.28028,15.3975,167382.9629,,,,2536,,144,128,128,C195H102Ni4O16,0.012779553,4,4c_Ni_1_Ch,"101,424",O:C(:O)C1:C:C:C2:C(:C:C:C3:C:C(:C:C:C:3:2)C(C2:C:C:C3:C(:C:C:C4:C:C(:C:C:C:4:3)C(:O):O):C:2)(C2:C:C:C3:C(:C:C:C4:C:C(:C:C:C:4:3)C(:O):O):C:2)C2:C:C:C3:C(:C:C:C4:C:C(:C:C:C:4:3)C(:O):O):C:2):C:1___O:C(:O)C1:C:C:C2:C(:C:C:C3:C:C(:C:C:C:3:2)C2:C:C(C3:C:C:C4:C(:C:C:C5:C:C(:C:C:C:5:4)C(:O):O):C:3):C3:C:C:2C2:C:C:C4:C(:C:C:C5:C:C(:C:C:C:5:4)C4:C:C5C6:C:C:C7:C(:C:C:C8:C:C(:C:C:C:8:7)C7:C:C(C8:C:C:C9:C(:C:C:C%10:C:C(:C:C:C:%10:9)C9:C:C(C%10:C:C:C%11:C(:C:C:C%12:C:C3:C:C:C:%12:%11):C:%10):C3:C:C:9C9:C:C:C%10:C(:C:C:C%11:C:C(:C:C:C:%11:%10)C%10:C:C(C%11:C:C:C%12:C(:C:C:C%13:C:C(:C:C:C:%13:%12)C:5:C:C:4C4:C:C:C5:C(:C:C:C%12:C:C(:C:C:C:%12:5)C5:C:C(C%12:C:C:C%13:C(:C:C:C%14:C:C3:C:C:C:%14:%13):C:%12):C(:C:C:5C3:C:C:C5:C(:C:C:C%12:C:C(:C:C:C:%12:5)C(:O):O):C:3)C3:C:C:C5:C(:C:C:C%12:C:C(:C:C:C:%12:5)C(:O):O):C:3):C:4):C:%11):C(:C:C:%10C3:C:C:C4:C(:C:C:C5:C:C(:C:C:C:5:4)C(:O):O):C:3)C3:C:C:C4:C(:C:C:C5:C:C(:C:C:C:5:4)C(:O):O):C:3):C:9):C:8):C(:C:C:7C3:C:C:C4:C(:C:C:C5:C:C(:C:C:C:5:4)C(:O):O):C:3)C3:C:C:C4:C(:C:C:C5:C:C(:C:C:C:5:4)C(:O):O):C:3):C:6):C:2):C:1,1
SR_crsd_v1-8c_Zr_1_Ch_v2-4c_1anC_Ch_ntn_edge_1B_2NO2_Ch_2x2x1,0.25933,0.42818,1.69717,0,0,4.31446,2.17638,57858.86343,,,,3808,,1536,1536,512,C33H24N8O48Zr6,0.053097345,8,8c_Zr_1_Ch,"6,69",O:C(:O)C(:O):O___O:C(:O)C1:C:C(:C(:C:C:1N(:O):O)C(C1:C:C(:C(:C:C:1N(:O):O)C(:O):O)N(:O):O)(C1:C:C(:C(:C:C:1N(:O):O)C(:O):O)N(:O):O)C1:C:C(:C(:C:C:1N(:O):O)C(:O):O)N(:O):O)N(:O):O,1
SR_ced_v1-3c_B_Ch_v2-12c_Mn_1_Ch_1B_4CN_Ch_2x2x2,0.20493,0.5542,1.02792,349.204,358.952,8.87274,4.10201,61379.11846,,,,2488,,336,336,144,C198H18Mn8N60O27,0.02640264,12,12c_Mn_1_Ch,100,N#CC1:C(C#N):C(C2:C:C(:C:C(:C:2)C2:C(C#N):C(C#N):C(C3:C:C(:C:C(:C:3)C3:C(C#N):C(C#N):C(C(:O):O):C(C#N):C:3C#N)C3:C(C#N):C(C#N):C(C(O):O):C(C#N):C:3C#N):C(C#N):C:2C#N)C2:C(C#N):C(C#N):C(C(:O):O):C(C#N):C:2C#N):C(C#N):C(C#N):C:1C(O):O,1
SR_ceg_v1-3c_triazine_Ch_v2-6c_Zr_1_Ch_v3-4c_B_Ch_2B_2SH_Ch_ntn_edge_1x1x2,0.13604,0.77118,0.550783,3445.32,1897.63,16.29442,10.72799,35801.01979,,,,828,,96,96,24,C93H62N9O16S24Zr3,0.014705882,6,6c_Zr_1_Ch,366,O:C(:O)C1:N:C2:N:C(:N:1)C1:C:C(S):C(:C:C:1S)C1:C:C(S):C(:C:C:1S)C1:C:C3C4:C:C(S):C(:C:C:4S)C4:C:C(S):C(:C:C:4S)C4:N:C(:N:C(:N:4)C4:C:C(S):C(:C:C:4S)C4:C:C(S):C(:C:C:4S)C4:C:C5C6:C:C(S):C(:C:C:6S)C6:C:C(S):C(:C:C:6S)C6:N:C(:N:C(:N:6)C6:C:C(S):C(:C:C:6S)C6:C:C(S):C(:C:C:6S)C6:C:C(C7:C:C(S):C(:C:C:7S)C7:C:C(S):C2:C:C:7S):C2:C:C:6C6:C:C(S):C(:C:C:6S)C6:C:C(S):C(:C:C:6S)C6:N:C(:N:C(:N:6)C6:C:C(S):C(:C:C:6S)C6:C:C(S):C(:C:C:6S)C:3:C:C:1C1:C:C(S):C(:C:C:1S)C1:C:C(S):C(:C:C:1S)C1:N:C(:N:C(:N:1)C1:C:C(S):C(:C:C:1S)C1:C:C(S):C(:C:C:1S)C:5:C:C:4C1:C:C(S):C(:C:C:1S)C1:C:C(S):C(:C:C:1S)C1:N:C(:N:C(:N:1)C1:C:C(S):C(:C:C:1S)C1:C:C(S):C2:C:C:1S)C(:O):O)C(:O):O)C(:O):O)C(:O):O)C(:O):O,1
SR_crs_v1-6c_CdZn_1_Ch_3B_fused_8H_Ch_1x1x1,0.08182,0.90248,0.285527,4465.71,1275.08,28.92851,21.12563,112715.8877,,,,1424,,256,256,192,C48Cd3H24O13Zn1,0.047058824,6,6c_CdZn_1_Ch,28,O:C(:O)C1:C:C:C2:C(:C:C:C3:C:C(:C:C:C:3:2)C(:O):O):C:1,1
SR_cda_v1-4c_In_1_Ch_v2-4c_In_1_Ch_1DoU_Ch_1x1x2,0.12317,0.80778,0.608176,4010.66,2439.19,10.64017,9.31402,22480.87311,,,,504,,192,192,192,C8H4In1O8,0.05,4,4c_In_1_Ch,10,O:C(:O)C=CC(:O):O,1
SR_byl_v1-4c_bicyclooctane_Ch_v2-4c_In_1_Ch_ntn_edge_1B_4F_Ch_1x1x1,0.19648,0.75934,0.728104,2932.76,2135.36,11.17444,7.12733,23247.06926,,,,624,,128,128,128,C20F8H2In1O8,0.026315789,4,4c_In_1_Ch,"16,112",O:C(:O)C1:C(F):C(F):C(C(:O):O):C(F):C:1F___O:C(:O)C1=CC23C=C(C(:O):O)C1C(=C2)C1:C(F):C(F):C(C2=CC4(C=C(C(:O):O)C2C(=C4)C(:O):O)C2:C(F):C(F):C(:C(F):C:2F)C24C=C(C(:O):O)C(C(=C2)C(:O):O)C(=C4)C2:C(F):C(F):C(C4=CC5(C=C(C(:O):O)C4C(=C5)C(:O):O)C4:C(F):C(F):C3:C(F):C:4F):C(F):C:2F):C(F):C:1F,1
SR_ceq_v1-6c_Cr_1_Ch_v2-6c_bicyclooctane_Ch_v3-3c_B_Ch_2B_2CH3_Ch_1x1x1,0.10969,0.86212,0.259116,5777.36,1497,19.00926,16.83216,36143.99515,,,,672,,15,15,12,C346Cr3H310O13,0.004484305,6,6c_Cr_1_Ch,,None,1
SR_cez_v1-4c_Ni_1_Ch_v2-6c_B_Ch_v3-3c_B_Ch_1B_4CN_Ch_2x2x1,0.50556,0.57074,0.97408,935.466,911.219,7.09001,3.89983,72494.65547,,,,2832,,216,192,192,C39H3N12Ni1O4,0.017241379,4,4c_Ni_1_Ch,348,N#CC1:C(C#N):C(C2:C:C(:C:C(:C:2)C2:C(C#N):C(C#N):C(:C(C#N):C:2C#N)C2:C(C3:C(C#N):C(C#N):C(C4:C:C(:C:C(:C:4)C4:C(C#N):C(C#N):C(C(:O):O):C(C#N):C:4C#N)C4:C(C#N):C(C#N):C(C(:O):O):C(C#N):C:4C#N):C(C#N):C:3C#N):C(C3:C(C#N):C(C#N):C(C4:C:C(:C:C(:C:4)C4:C(C#N):C(C#N):C(C(:O):O):C(C#N):C:4C#N)C4:C(C#N):C(C#N):C(C(:O):O):C(C#N):C:4C#N):C(C#N):C:3C#N):C(C3:C(C#N):C(C#N):C(C4:C:C(:C:C(:C:4)C4:C(C#N):C(C#N):C(C(:O):O):C(C#N):C:4C#N)C4:C(C#N):C(C#N):C(C(:O):O):C(C#N):C:4C#N):C(C#N):C:3C#N):C(C3:C(C#N):C(C#N):C(C4:C:C(:C:C(:C:4)C4:C(C#N):C(C#N):C(C(:O):O):C(C#N):C:4C#N)C4:C(C#N):C(C#N):C(C(:O):O):C(C#N):C:4C#N):C(C#N):C:3C#N):C:2C2:C(C#N):C(C#N):C(C3:C:C(:C:C(:C:3)C3:C(C#N):C(C#N):C(C(:O):O):C(C#N):C:3C#N)C3:C(C#N):C(C#N):C(C(:O):O):C(C#N):C:3C#N):C(C#N):C:2C#N)C2:C(C#N):C(C#N):C(C(:O):O):C(C#N):C:2C#N):C(C#N):C(C#N):C:1C(:O):O,1
SR_cdme_v1-4c_B_Ch_v2-4c_V_1_Ch_v3-4c_1anC_Ch_v4-4c_B_Ch_1B_2CN_Ch_2x2x1,0.26861,0.7,0.643048,3333.89,2143.85,10.75339,6.04924,43433.0442,,,,1528,,72,64,64,C125H32N24O8V2,0.010582011,4,4c_V_1_Ch,,None,1
SR_ces_v1-4c_B_Ch_v2-6c_bicyclooctane_Ch_v3-4c_Cu_1_Ch_ntn_edge_2B_4Br_Ch_2x2x2,0.16754,0.64912,1.467,1153.82,1692.65,10.30401,8.46115,114753.773,,,,2800,,216,192,192,Br48C104Cu3H8O12,0.01744186,4,4c_Cu_1_Ch,,None,1
SR_ceg_v1-3c_pyrrole_Ch_v2-6c_Ni_1_Ch_v3-4c_Ni_1_Ch_ntn_edge_3B_fused_8H_Ch_2x2x1,0.22983,0.6668,0.860347,1885.7,1622.36,10.14402,6.04511,25495.50033,,,,968,,180,168,144,C63H31N3Ni5O19,0.043103448,"4,6","4c_Ni_1_Ch,6c_Ni_1_Ch",38,O:C(:O)C1:C:C:C2:C(:C:C:C3:C:C(:C:C:C:3:2)C2:C:C:C(C(:O):O):N:2C(:O):O):C:1,1
SR_cdz_v1-4c_Cu_1_Ch_v2-4c_Cu_1_Ch_1DoU_Ch_1B_4H_Ch_ntn_edge_2x1x2,2.23979,0.71716,0.934872,2118.19,1980.24,8.55703,6.39924,29488.06604,,,,960,,432,384,384,C11Cu3H4O12,0.111111111,4,4c_Cu_1_Ch,"6,16,10",O:C(:O)C(:O):O___O:C(:O)C1:C:C:C(:C:C:1)C(:O):O___O:C(:O)C=CC(:O):O,1
SR_cer_v1-3c_triazine_Ch_v2-6c_bicyclooctane_Ch_v3-6c_CdZn_1_Ch_2B_2CH3_Ch_1x1x1,0.07984,0.86564,0.290074,5852.8,1697.75,17.73386,13.13161,74495.0509,,,,1336,,64,64,48,C163Cd3H145N9O13Zn1,0.012121212,6,6c_CdZn_1_Ch,,None,1
SR_cer_v1-3c_triazine_Ch_v2-6c_bicyclooctane_Ch_v3-6c_Ni_1_Ch_ntn_edge_2B_4Br_Ch_2x2x1,0.12964,0.64814,1.43821,1348.49,1939.41,8.05423,5.78137,68844.2923,,,,1744,,288,288,192,Br24C55H3N9Ni4O14,0.038095238,6,6c_Ni_1_Ch,202,O:C(:O)C1:N:C(:N:C(:N:1)C1:C(Br):C(Br):C(:C(Br):C:1Br)C1:C(Br):C(Br):C(C2=C(C3:C(Br):C(Br):C(:C(Br):C:3Br)C3:C(Br):C(Br):C(C4:N:C(:N:C(:N:4)C(:O):O)C(:O):O):C(Br):C:3Br)C3C(=C(C4:C(Br):C(Br):C(:C(Br):C:4Br)C4:C(Br):C(Br):C(C5:N:C(:N:C(:N:5)C(:O):O)C(:O):O):C(Br):C:4Br)C2C(=C3C2:C(Br):C(Br):C(:C(Br):C:2Br)C2:C(Br):C(Br):C(C3:N:C(:N:C(:N:3)C(:O):O)C(:O):O):C(Br):C:2Br)C2:C(Br):C(Br):C(:C(Br):C:2Br)C2:C(Br):C(Br):C(C3:N:C(:N:C(:N:3)C(:O):O)C(:O):O):C(Br):C:2Br)C2:C(Br):C(Br):C(:C(Br):C:2Br)C2:C(Br):C(Br):C(C3:N:C(:N:C(:N:3)C(:O):O)C(:O):O):C(Br):C:2Br):C(Br):C:1Br)C(:O):O,1
SR_cds_v1-4c_Cu_1_Ch_1B_2CN_Ch_2x2x2,0.70793,0.75162,0.680863,3706.87,2523.87,9.16243,5.89689,86686.53026,,,,2432,,576,512,512,C10Cu1H2N2O4,0.055555556,4,4c_Cu_1_Ch,18,N#CC1:C:C(C(:O):O):C(C#N):C:C:1C(:O):O,1
SR_cev_v1-4c_B_Ch_v2-4c_Cu_1_Ch_v3-4c_porphyrin_Ch_ntn_edge_2x2x1,1.16146,0.52656,1.21644,0,0,7.84972,2.93093,28747.16956,,,,1536,,216,192,192,C18Cu1H7N2O4,0.032258065,4,4c_Cu_1_Ch,186,O:C(:O)C1:C:C2:C(:C:C:1C(:O):O)C1:C3:C:C:C(:N:3):C3C4:C:C(C(:O):O):C(:C:C:4C4:C5:C:C:C(:N:5):C2:C2:C:C:C(:[NH]:2):C2C5:C:C(C(:O):O):C(:C:C:5C5:C6:C:C:C(:N:6):C(C6:C:C(C(:O):O):C(:C:C:6C(:C6:C:C:C:2:N:6):C2:C:C:C:4:[NH]:2)C(:O):O):C2:C:C:C(:[NH]:2):C2C4:C:C(C(:O):O):C(:C:C:4C(:C4:C:C:C(:N:4):C(C4:C:C(C(:O):O):C(:C:C:4C(:C4:C:C:C:2:N:4):C2:C:C:C:5:[NH]:2)C(:O):O):C2:C:C:C:1:[NH]:2):C1:C:C:C:3:[NH]:1)C(:O):O)C(:O):O)C(:O):O,1
SR_ceh_v1-3c_B_Ch_v2-6c_Mg_1_Ch_v3-4c_1anC_Ch_1B_2CN_Ch_ntn_edge_2x2x3,0.4277,0.42168,1.22863,0,0,4.60922,2.42204,50987.86918,,,,2988,,360,360,144,C49H16Mg2N8O8,0.024691358,6,6c_Mg_1_Ch,,None,1
SR_diaj_v1-6c_Fe_1_Ch_1B_2F_Ch_1x1x1,0.18101,0.8263,0.479729,2501.01,1199.81,26.77153,22.74348,260461.6318,,,,4992,,1440,1440,1152,C24F6Fe3H6O13,0.06122449,6,6c_Fe_1_Ch,16,O:C(:O)C1:C:C(F):C(:C:C:1F)C(:O):O,1
SR_ced_v1-3c_triazine_Ch_v2-12c_Mn_1_Ch_ntn_edge_2B_2NO2_Ch_2x2x2,0.15019,0.71396,0.721487,2607.41,1881.21,11.8306,8.15588,116355.2988,,,,3352,,336,336,144,C174H48Mn8N66O123,0.01946472,12,12c_Mn_1_Ch,136,OC(:O)C1:C:C(:C(:C:C:1N(:O):O)C1:C:C(:C(:C:C:1N(:O):O)C1:N:C(:N:C(:N:1)C1:C:C(:C(:C:C:1N(:O):O)C1:C:C(:C(:C:C:1N(:O):O)C(:O):O)N(:O):O)N(:O):O)C1:N:C(:N:C(:N:1)C1:C:C(:C(:C:C:1N(:O):O)C1:C:C(:C(:C:C:1N(:O):O)C(:O):O)N(:O):O)N(:O):O)C1:C:C(:C(:C:C:1N(:O):O)C1:C:C(:C(:C:C:1N(:O):O)C(O):O)N(:O):O)N(:O):O)N(:O):O)N(:O):O,1
SR_crs_v1-6c_CdZn_1_Ch_1B_2CH3_Ch_1x1x1,0.07236,0.82618,0.551342,2957.23,1630.44,18.33435,12.61256,47954.49399,,,,1136,,256,256,192,C30Cd3H24O13Zn1,0.059701493,6,6c_CdZn_1_Ch,22,CC1:C:C(C(:O):O):C(C):C:C:1C(:O):O,1
SR_buh_v1-4c_1anC_Ch_v2-12c_Zr_1_Ch_v3-12c_Zr_1_Ch_1DoU_Ch_1x1x1,0.29988,0.52552,1.39315,0,0,7.22767,2.89516,14844.31412,,,,840,,384,384,192,C39H28O32Zr6,0.060606061,12,12c_Zr_1_Ch,29,O:C(:O)C=CC(C=CC(:O):O)(C=CC(:O):O)C=CC(:O):O,1