name,k,VF,density,ASA_grav,ASA_vol,LPD,PLD,volume,,,,N_atoms,,N_metal_containing_bonds,N_metal_nonmetal_bonds,N_metal_linker_bonds,formula,metal_nonmetal_ratio,metal_node_connectivity,metal_node_name,N_atoms_per_linker,linker_SMILES,N_ccs
SR_asd_v1-4c_B_Ch_v2-4c_bicyclooctane_Ch_v3-8c_Co_2_Ch_ntn_edge_2B_4H_Ch_1x1x3,0.26813,0.81738,0.387391,4114.52,1593.93,25.13188,23.66892,33098.18115,,,,831,,60,60,48,C156Cl1Co4H92N24,0.014652015,8,8c_Co_2_Ch,272,C1=C(C2C:N:N:N:2)C2C(=CC13C=C2C1:C:C:C(:C:C:1)C1:C:C:C(:C:C:1)C1:C:C2C4:C:C:C(:C:C:4)C4:C:C:C(:C:C:4)C4=CC5(C=C(C6C:N:N:N:6)C4C(=C5)C4C:N:N:N:4)C4:C:C:C(:C:C:4)C4:C:C:C(:C:C:4)C4:C:C5C6:C:C:C(:C:C:6)C6:C:C:C(:C:C:6)C6=CC7(C=C(C8C:N:N:N:8)C6C(=C7)C6C:N:N:N:6)C6:C:C:C(:C:C:6)C6:C:C:C(:C:C:6)C:2:C:C:1C1:C:C:C(:C:C:1)C1:C:C:C(:C:C:1)C1=CC2(C=C(C6C:N:N:N:6)C1C(=C2)C1C:N:N:N:1)C1:C:C:C(:C:C:1)C1:C:C:C(:C:C:1)C:5:C:C:4C1:C:C:C(:C:C:1)C1:C:C:C3:C:C:1)C1C:N:N:N:1,1
SR_asd_v1-4c_B_Ch_v2-4c_bicyclooctane_Ch_v3-8c_Co_1_Ch_1TrU_Ch_2TrU_Ch_1x1x2,0.24382,0.84766,0.347353,4542.27,1577.77,19.61334,15.83572,16543.48118,,,,282,,40,40,32,C100Co4H20O17,0.02919708,8,8c_Co_1_Ch,136,O:C(:O)C#CC1=CC23C#CC#CC4:C:C5C#CC#CC6=CC7(C#CC#CC8:C:C9C#CC#CC%10%11C=C(C#CC#CC:5:C:C:4C#CC#CC4=CC5(C#CC#CC:9:C:C:8C#CC#CC(=C2)C1C(C#CC(:O):O)=C3)C=C(C#CC(:O):O)C4C(C#CC(:O):O)=C5)C(C(C#CC(:O):O)=C%10)C(C#CC(:O):O)=C%11)C=C(C#CC(:O):O)C6C(C#CC(:O):O)=C7,1
SR_albd_v1-4c_Cu_1_Ch_v2-6c_B_Ch_v3-4c_Cu_1_Ch_v4-3c_B_Ch_1B_2NH2_Ch_2x2x2,0.25142,0.64324,0.905706,1813.72,1642.69,8.23406,4.73921,68055.65751,,,,2880,,432,384,384,C25Cu2H19N6O8,0.034482759,4,4c_Cu_1_Ch,"108,20,60",NC1:C:C(:C(N):C:C:1C(:O):O)C1:C(C2:C:C(N):C(:C:C:2N)C(:O):O):C(C2:C:C(N):C(:C:C:2N)C(:O):O):C(C2:C:C(N):C(:C:C:2N)C(:O):O):C(C2:C:C(N):C(:C:C:2N)C(:O):O):C:1C1:C:C(N):C(:C:C:1N)C(:O):O___NC1:C:C(C(:O):O):C(N):C:C:1C(:O):O___NC1:C:C(C2:C:C(:C:C(:C:2)C2:C:C(N):C(:C:C:2N)C(:O):O)C2:C:C(N):C(:C:C:2N)C(:O):O):C(N):C:C:1C(:O):O,1
SR_asc_v1-3c_B_Ch_v2-6c_Fe_1_Ch_v3-4c_1anC_Ch_1B_2DoU_Ch_1x1x2,0.12828,0.90154,0.193965,7412.52,1437.77,19.22211,15.95444,43309.53952,,,,518,,30,30,24,C141Fe3H102O13,0.01171875,6,6c_Fe_1_Ch,255,O:C(:O)C=CC1:C:C:C(C=CC2(C=CC3:C:C:C(C=CC(:O):O):C:C:3)C=CC3:C:C:C(C=CC4:C:C5C=CC6:C:C:C(C=CC(C=CC7:C:C:C(C=CC(:O):O):C:C:7)(C=CC7:C:C:C(C=CC(:O):O):C:C:7)C=CC7:C:C:C(C=CC8:C:C(C=CC9:C:C:C(C=C2):C:C:9):C:C(C=CC2:C:C:C(C=CC(C=CC9:C:C:C(C=CC(:O):O):C:C:9)(C=CC9:C:C:C(C=CC(:O):O):C:C:9)C=CC9:C:C:C(C=CC(:C:4):C:5):C:C:9):C:C:2):C:8):C:C:7):C:C:6):C:C:3):C:C:1,1
SR_asn_v1-3c_Cu_imadazoline_Ch_v2-3c_Cu_imadazoline_Ch_v3-3c_Cu_imadazoline_Ch_v4-3c_B_Ch_v5-4c_bicyclooctane_Ch_v6-4c_1anC_Ch_6_edges_1x1x1,0.19416,0.7657,0.754212,2969.67,2239.76,10.98233,5.52912,15953.11324,,,,432,,84,84,84,C32Cu7H19N14,0.107692308,3,3c_Cu_imadazoline_Ch,"75,40",C1:N:N:C:C:1C(C1:C:N:N:C:1)(C1:C:N:N:C:1)C1:C:C(:C:C(:C:1)C(C1:C:N:N:C:1)(C1:C:N:N:C:1)C1:C:N:N:C:1)C(C1:C:N:N:C:1)(C1:C:N:N:C:1)C1:C:N:N:C:1___C1=C(C2:C:N:N:C:2)C2C(=CC1(C=C2C1:C:N:N:C:1)C1:C:N:N:C:1)C1:C:N:N:C:1,1
SR_asc_v1-3c_B_Ch_v2-6c_Cr_1_Ch_v3-4c_1anC_Ch_1B_4H_Ch_1TrU_Ch_2x2x3,0.40428,0.72454,0.617909,4016.36,2481.75,7.35715,5.49878,45538.88575,,,,1380,,180,180,144,C69Cr3H30O13,0.026785714,6,6c_Cr_1_Ch,444,O:C(:O)C#CC1(C#CC(:O):O)C2:C:C:C(:C:C:2)C2:C:C3:C:C(:C:2)C2:C:C:C(:C:C:2)C(C#CC(:O):O)(C#CC(:O):O)C2:C:C:C(:C:C:2)C2:C:C4:C:C(:C:2)C2:C:C:C(:C:C:2)C(C#CC(:O):O)(C#CC(:O):O)C2:C:C:C(:C:C:2)C2:C:C5:C:C(:C:2)C2:C:C:C(:C:C:2)C(C#CC(:O):O)(C#CC(:O):O)C2:C:C:C(:C:C:2)C2:C:C6:C:C(:C:2)C2:C:C:C(:C:C:2)C(C#CC(:O):O)(C#CC(:O):O)C2:C:C:C(:C:C:2)C2:C:C(:C:C(:C:2)C2:C:C:C(:C:C:2)C(C#CC(:O):O)(C#CC(:O):O)C2:C:C:C4:C:C:2)C2:C:C:C(:C:C:2)C(C#CC(:O):O)(C#CC(:O):O)C2:C:C:C(:C:C:2)C2:C:C(:C:C(:C:2)C2:C:C:C(:C:C:2)C(C#CC(:O):O)(C#CC(:O):O)C2:C:C:C(:C:C:2)C2:C:C(:C:C(:C:2)C2:C:C:C(:C:C:2)C(C#CC(:O):O)(C#CC(:O):O)C2:C:C:C6:C:C:2)C2:C:C:C(:C:C:2)C(C#CC(:O):O)(C#CC(:O):O)C2:C:C:C(:C:C:2)C2:C:C(:C:C(:C:2)C2:C:C:C(:C:C:2)C(C#CC(:O):O)(C#CC(:O):O)C2:C:C:C5:C:C:2)C2:C:C:C(:C:C:2)C(C#CC(:O):O)(C#CC(:O):O)C2:C:C:C3:C:C:2)C2:C:C:C1:C:C:2,1
SR_asc_v1-3c_B_Ch_v2-6c_Fe_1_Ch_v3-4c_bicyclooctane_Ch_1TrU_Ch_1B_4H_Ch_2x2x2,0.1871,0.79844,0.430268,4852.83,2088.02,12.58514,10.32462,53533.25022,,,,1184,,120,120,96,C90Fe3H42O13,0.020689655,6,6c_Fe_1_Ch,,None,1
SR_asc_v1-3c_triazine_Ch_v2-6c_Cr_1_Ch_v3-4c_bicyclooctane_Ch_2B_1TrU_Ch_1x1x1,0.0821,0.93734,0.128534,7556.12,971.221,26.51142,21.36819,45728.26028,,,,334,,15,15,12,C204Cr3H108N6O13,0.009063444,6,6c_Cr_1_Ch,330,O:C(:O)C1:C:C:C(C#CC2:C:C:C(:C:C:2)C2=CC3(C=C4C5:C:C:C(C#CC6:C:C:C(:C:C:6)C6:N:C7:N:C(:N:6)C6:C:C:C(C#CC8:C:C:C(:C:C:8)C8=CC9(C=C(C%10:C:C:C(C#CC%11:C:C:C(:C:C:%11)C(:O):O):C:C:%10)C8C(=C9)C8:C:C:C(C#CC9:C:C:C(:C:C:9)C(:O):O):C:C:8)C8:C:C:C(C#CC9:C:C:C(:C:C:9)C9:N:C(:N:C(:N:9)C9:C:C:C(C#CC%10:C:C:C(:C:C:%10)C%10%11C=C(C%12:C:C:C(C#CC%13:C:C:C(:C:C:%13)C(:O):O):C:C:%12)C(C(=C%10)C%10:C:C:C(C#CC%12:C:C:C(:C:C:%12)C(:O):O):C:C:%10)C(=C%11)C%10:C:C:C(C#CC%11:C:C:C7:C:C:%11):C:C:%10):C:C:9)C7:C:C:C(C#CC9:C:C:C(:C:C:9)C(=C3)C24):C:C:7):C:C:8):C:C:6):C:C:5)C2:C:C:C(C#CC3:C:C:C(:C:C:3)C(:O):O):C:C:2):C:C:1,1
SR_asc_v1-3c_B_Ch_v2-6c_Cr_1_Ch_v3-4c_1anC_Ch_1B_2thiophene_Ch_1x1x2,0.11351,0.8737,0.303395,5018.02,1522.44,17.62598,13.50618,36987.01367,,,,470,,30,30,24,C141Cr3H54O13S24,0.012931034,6,6c_Cr_1_Ch,231,O:C(:O)C1:C:C2:C:C3:S:C(:C:C:3:C:C:2:S:1)C1(C2:C:C3:C:C4:S:C(:C:C:4:C:C:3:S:2)C(:O):O)C2:C:C3:C:C4:S:C(:C:C:4:C:C:3:S:2)C2:C:C3:C:C(:C:2)C2:C:C4:C:C5:S:C(:C:C:5:C:C:4:S:2)C(C2:C:C4:C:C5:S:C(:C:C:5:C:C:4:S:2)C(:O):O)(C2:C:C4:C:C5:S:C(:C:C:5:C:C:4:S:2)C(:O):O)C2:C:C4:C:C5:S:C(:C:C:5:C:C:4:S:2)C2:C:C(:C:C(:C:2)C2:C:C4:C:C5:S:C(:C:C:5:C:C:4:S:2)C(C2:C:C4:C:C5:S:C(:C:C:5:C:C:4:S:2)C(:O):O)(C2:C:C4:C:C5:S:C(:C:C:5:C:C:4:S:2)C(:O):O)C2:C:C4:C:C5:S:C3:C:C:5:C:C:4:S:2)C2:C:C3:C:C4:S:C1:C:C:4:C:C:3:S:2,1
SR_apo_v1-3c_B_Ch_v2-6c_CdZn_1_Ch_1B_2Br_Ch_2x1x1,0.0605,0.81012,0.7126,2909.26,2073.14,12.65232,8.5365,41687.54761,,,,808,,128,128,96,Br12C54Cd3H18O13Zn1,0.041237113,6,6c_CdZn_1_Ch,48,O:C(:O)C1:C:C(Br):C(:C:C:1Br)C1:C:C(:C:C(:C:1)C1:C:C(Br):C(:C:C:1Br)C(:O):O)C1:C:C(Br):C(:C:C:1Br)C(:O):O,1
SR_ana_v1-4c_In_1_Ch_1B_2NO2_Ch_1x1x1,0.07246,0.8446,0.442463,3982.26,1762,17.97581,11.7054,112242.9187,,,,1968,,384,384,384,C16H4In1N4O16,0.025,4,4c_In_1_Ch,20,O:C(:O)C1:C:C(:C(:C:C:1N(:O):O)C(:O):O)N(:O):O,1
SR_apo_v1-3c_pyrrole_Ch_v2-6c_CdZn_1_Ch_1B_2NO2_Ch_2x1x1,0.08863,0.74328,0.73705,2923.61,2154.85,10.25586,8.42512,32576.618,,,,968,,128,128,96,C50Cd3H16N14O37Zn1,0.034188034,6,6c_CdZn_1_Ch,58,O:C(:O)C1:C:C(:C(:C:C:1N(:O):O)C1:C:C:C(C2:C:C(:C(:C:C:2N(:O):O)C(:O):O)N(:O):O):N:1C1:C:C(:C(:C:C:1N(:O):O)C(:O):O)N(:O):O)N(:O):O,1
SR_apo_v1-3c_B_Ch_v2-6c_CdZn_1_Ch_4B_fused_8H_Ch_1x1x1,0.06769,0.90494,0.241061,5627.28,1356.52,21.14817,17.22084,56052.97443,,,,740,,64,64,48,C114Cd3H54O13Zn1,0.022099448,6,6c_CdZn_1_Ch,90,O:C(:O)C1:C:C2:C:C:C3:C:C(:C:C4:C:C:C(:C:1):C:2:C:3:4)C1:C:C(:C:C(:C:1)C1:C:C2:C:C:C3:C:C(:C:C4:C:C:C(:C:1):C:2:C:3:4)C(:O):O)C1:C:C2:C:C:C3:C:C(:C:C4:C:C:C(:C:1):C:2:C:3:4)C(:O):O,1
SR_asd_v1-4c_pyrene_Ch_v2-4c_bicyclooctane_Ch_v3-8c_Mn_1_Ch_ntn_edge_2B_1TrU_Ch_1x1x3,0.18354,0.8629,0.286728,5443,1560.66,32.98573,31.6786,52234.11287,,,,939,,60,60,48,C184Cl1H92Mn4N32,0.012944984,8,8c_Mn_1_Ch,308,C1#CC2:C:C:C(:C:C:2)C2:C:C3C4:C:C:C(C#CC5:C:C:C(:C:C:5)C5=CC6(C=C(C7:N:N:N:N:7)C5C(=C6)C5:N:N:N:N:5)C5:C:C:C(C#CC6:C:C:C(:C:C:6)C6:C:C7C8:C:C:C(C#CC9:C:C:C(:C:C:9)C9=CC%10(C=C(C%11:N:N:N:N:%11)C9C(=C%10)C9:N:N:N:N:9)C9:C:C:C(C#CC%10:C:C:C(:C:C:%10)C%10:C:C(C%11:C:C:C(C#CC%12:C:C:C(:C:C:%12)C%12=CC%13(C=C(C%14:N:N:N:N:%14)C%12C(=C%13)C%12:N:N:N:N:%12)C%12:C:C:C(C#CC%13:C:C:C(:C:C:%13)C%13:C:C(C%14:C:C:C(C#CC%15:C:C:C(:C:C:%15)C%15%16C=C(C%17:C:C:C1:C:C:%17)C(C(=C%15)C1:N:N:N:N:1)C(=C%16)C1:N:N:N:N:1):C:C:%14):C1:C:C:C:6:C6:C:7:C:C:C:%13:C:1:6):C:C:%12):C:C:%11):C1:C:C:C:2:C2:C:3:C:C:C:%10:C:1:2):C:C:9):C:C:8):C:C:5):C:C:4,1
SR_asc_v1-3c_B_Ch_v2-6c_Fe_1_Ch_v3-4c_1anC_Ch_1DoU_Ch_2x2x3,0.35214,0.66258,0.770654,2343.52,1806.05,7.50198,5.48108,27641.71883,,,,1092,,180,180,144,C45Fe3H30O13,0.034090909,6,6c_Fe_1_Ch,348,O:C(:O)C=CC1(C=CC(:O):O)C=CC2:C:C3C=CC(C=CC(:O):O)(C=CC(:O):O)C=CC4:C:C5C=CC(C=CC(:O):O)(C=CC(:O):O)C=CC6:C:C7C=CC(C=CC(:O):O)(C=CC(:O):O)C=CC8:C:C(C=C1):C:C(C=CC(C=CC(:O):O)(C=CC(:O):O)C=CC1:C:C9C=CC(C=CC(:O):O)(C=CC(:O):O)C=CC%10:C:C(C=CC(C=CC(:O):O)(C=CC(:O):O)C=CC(:C:2):C:3):C:C(C=CC(C=CC(:O):O)(C=CC(:O):O)C=CC2:C:C(C=CC(C=CC(:O):O)(C=CC(:O):O)C=CC(:C:4):C:5):C:C(C=CC(C=CC(:O):O)(C=CC(:O):O)C=CC3:C:C(C=CC(C=CC(:O):O)(C=CC(:O):O)C=CC(:C:7):C:6):C:C(C=CC(C=CC(:O):O)(C=CC(:O):O)C=CC(:C:1):C:9):C:3):C:2):C:%10):C:8,1
SR_asc_v1-3c_triazine_Ch_v2-6c_Fe_1_Ch_v3-4c_1anC_Ch_2TrU_Ch_1TrU_Ch_2x2x3,0.28082,0.811,0.448675,5053.33,2267.3,10.77726,7.17839,54974.41766,,,,876,,180,180,144,C51Fe3N6O13,0.042857143,6,6c_Fe_1_Ch,276,O:C(:O)C#CC1(C#CC#CC2:N:C3C#CC#CC(C#CC#CC4:N:C5C#CC#CC(C#CC#CC6:N:C7C#CC#CC(C#CC#CC8:N:C(C#CC#C1):N:C(C#CC#CC(C#CC#CC1:N:C9C#CC#CC(C#CC#CC%10:N:C(C#CC#CC(C#CC#CC(:N:2):N:3)(C#CC(:O):O)C#CC(:O):O):N:C(C#CC#CC(C#CC#CC2:N:C(C#CC#CC(C#CC#CC(:N:4):N:5)(C#CC(:O):O)C#CC(:O):O):N:C(C#CC#CC(C#CC#CC3:N:C(C#CC#CC(C#CC#CC(:N:7):N:6)(C#CC(:O):O)C#CC(:O):O):N:C(C#CC#CC(C#CC#CC(:N:1):N:9)(C#CC(:O):O)C#CC(:O):O):N:3)(C#CC(:O):O)C#CC(:O):O):N:2)(C#CC(:O):O)C#CC(:O):O):N:%10)(C#CC(:O):O)C#CC(:O):O)(C#CC(:O):O)C#CC(:O):O):N:8)(C#CC(:O):O)C#CC(:O):O)(C#CC(:O):O)C#CC(:O):O)(C#CC(:O):O)C#CC(:O):O)C#CC(:O):O,1
SR_asd_v1-4c_B_Ch_v2-4c_bicyclooctane_Ch_v3-8c_Co_2_Ch_1B_2furan_Ch_ntn_edge_1x1x3,0.19737,0.8183,0.422372,3763.54,1589.62,23.5482,22.06344,30728.85797,,,,735,,60,60,48,C140Cl1Co4H60N24O16,0.01659751,8,8c_Co_2_Ch,240,C1=C(C2C:N:N:N:2)C2C(=CC13C=C2C1:C:C2:C:C4:O:C(:C:C:4:C:C:2:O:1)C1:C:C2C4:C:C5:C:C6:O:C(:C:C:6:C:C:5:O:4)C4=CC5(C=C(C6C:N:N:N:6)C4C(=C5)C4C:N:N:N:4)C4:C:C5:C:C6:O:C(:C:C:6:C:C:5:O:4)C4:C:C5C6:C:C7:C:C8:O:C(:C:C:8:C:C:7:O:6)C6=CC7(C=C(C8C:N:N:N:8)C6C(=C7)C6C:N:N:N:6)C6:C:C7:C:C8:O:C(:C:C:8:C:C:7:O:6)C:2:C:C:1C1:C:C2:C:C6:O:C(:C:C:6:C:C:2:O:1)C1=CC2(C=C(C6C:N:N:N:6)C1C(=C2)C1C:N:N:N:1)C1:C:C2:C:C6:O:C(:C:C:6:C:C:2:O:1)C:5:C:C:4C1:C:C2:C:C4:O:C3:C:C:4:C:C:2:O:1)C1C:N:N:N:1,1
SR_asd_v1-4c_B_Ch_v2-4c_bicyclooctane_Ch_v3-8c_Co_2_Ch_ntn_edge_4B_fused_8H_Ch_1x1x3,0.21711,0.79732,0.443431,3286.64,1457.4,24.24238,23.14425,33233.25402,,,,927,,60,60,48,C188Cl1Co4H92N24,0.013114754,8,8c_Co_2_Ch,304,C1=C(C2C:N:N:N:2)C2C(=CC13C=C2C1:C:C2:C:C:C4:C:C(:C:C5:C:C:C(:C:1):C:2:C:4:5)C1:C:C2C4:C:C5:C:C:C6:C:C(:C:C7:C:C:C(:C:4):C:5:C:6:7)C4=CC5(C=C(C6C:N:N:N:6)C4C(=C5)C4C:N:N:N:4)C4:C:C5:C:C:C6:C:C(:C:C7:C:C:C(:C:4):C:5:C:6:7)C4:C:C5C6:C:C7:C:C:C8:C:C(:C:C9:C:C:C(:C:6):C:7:C:8:9)C6=CC7(C=C(C8C:N:N:N:8)C6C(=C7)C6C:N:N:N:6)C6:C:C7:C:C:C8:C:C(:C:C9:C:C:C(:C:6):C:7:C:8:9)C:2:C:C:1C1:C:C2:C:C:C6:C:C(:C:C7:C:C:C(:C:1):C:2:C:6:7)C1=CC2(C=C(C6C:N:N:N:6)C1C(=C2)C1C:N:N:N:1)C1:C:C2:C:C:C6:C:C(:C:C7:C:C:C(:C:1):C:2:C:6:7)C:5:C:C:4C1:C:C2:C:C:C4:C:C3:C:C3:C:C:C(:C:1):C:2:C:4:3)C1C:N:N:N:1,1
SR_aste_v1-6c_Cr_1_Ch_v2-6c_Cr_1_Ch_1B_2NH2_Ch_ntn_edge_1x1x1,0.14451,0.77632,0.593542,2225.08,1320.68,28.8533,6.24285,154599.5581,,,,4448,,1200,1200,960,C102Cr15H72N24O65,0.057034221,6,6c_Cr_1_Ch,"20,6",NC1:C:C(C(:O):O):C(N):C:C:1C(:O):O___O:C(:O)C(:O):O,1
SR_apo_v1-3c_triazine_Ch_v2-6c_Zn_1_Ch_2B_2CH3_Ch_1x1x1,0.08028,0.89176,0.234084,6279.13,1469.84,20.30839,15.28374,55261.8976,,,,908,,64,64,48,C108H96N6O13Zn4,0.01793722,6,6c_Zn_1_Ch,111,CC1:C:C(:C(C):C:C:1C(:O):O)C1:C:C(C):C(:C:C:1C)C1:N:C(:N:C(:N:1)C1:C:C(C):C(:C:C:1C)C1:C:C(C):C(:C:C:1C)C(:O):O)C1:C:C(C):C(:C:C:1C)C1:C:C(C):C(:C:C:1C)C(:O):O,1
SR_apo_v1-3c_B_Ch_v2-6c_Zr_1_Ch_ntn_edge_3x2x2,0.26611,0.5309,1.4453,97.6293,141.103,6.06666,3.34596,71899.007,,,,4032,,2304,2304,576,C9H14O16Zr3,0.076923077,6,6c_Zr_1_Ch,18,O:C(:O)C1:C:C(:C:C(:C:1)C(:O):O)C(:O):O,1
SR_apo_v1-3c_B_Ch_v2-6c_CdZn_1_Ch_2B_fused_Ch_1x1x1,0.08491,0.8884,0.295,5269.89,1554.62,18.06469,13.44251,35802.17695,,,,548,,64,64,48,C78Cd3H42O13Zn1,0.030075188,6,6c_CdZn_1_Ch,66,O:C(:O)C1:C:C:C2:C:C(:C:C:C:2:C:1)C1:C:C(:C:C(:C:1)C1:C:C:C2:C:C(:C:C:C:2:C:1)C(:O):O)C1:C:C:C2:C:C(:C:C:C:2:C:1)C(:O):O,1
SR_asc_v1-3c_triazine_Ch_v2-6c_Cr_1_Ch_v3-4c_bicyclooctane_Ch_2TrU_Ch_1TrU_Ch_2x2x2,0.15516,0.84728,0.344312,5823.61,2005.14,14.00319,8.83197,59623.04217,,,,848,,120,120,96,C72Cr3H12N6O13,0.029126214,6,6c_Cr_1_Ch,408,O:C(:O)C#CC1=CC23C#CC#CC4:N:C5C#CC#CC6=CC7(C#CC#CC8:N:C9C#CC#CC%10=CC%11(C#CC#CC%12:N:C%13C#CC#CC%14=CC%15(C#CC#CC%16:N:C(C#CC#CC(=C2)C1C(C#CC(:O):O)=C3):N:C(C#CC#CC12C=C(C#CC#CC3:N:C%17C#CC#CC%18=CC%19(C#CC#CC%20:N:C(C#CC#CC%21=CC%22(C#CC#CC%23:N:C(C#CC#CC%24=CC%25(C#CC#CC(:N:9):N:8)C=C(C#CC(:O):O)C%24C(C#CC(:O):O)=C%25):N:C(C#CC#CC8=CC9(C#CC#CC%24:N:C(C#CC#CC%25=CC%26(C#CC#CC(:N:3):N:%17)C=C(C#CC(:O):O)C%25C(C#CC(:O):O)=C%26):N:C(C#CC#CC3%17C=C(C#CC#CC(:N:5):N:4)C(C(C#CC(:O):O)=C3)C(C#CC(:O):O)=C%17):N:%24)C=C(C#CC(:O):O)C8C(C#CC(:O):O)=C9):N:%23)C=C(C#CC(:O):O)C%21C(C#CC(:O):O)=C%22):N:C(C#CC#CC34C=C(C#CC#CC(:N:%13):N:%12)C(C(C#CC(:O):O)=C3)C(C#CC(:O):O)=C4):N:%20)C=C(C#CC(:O):O)C%18C(C#CC(:O):O)=C%19)C(C(C#CC(:O):O)=C1)C(C#CC(:O):O)=C2):N:%16)C=C(C#CC(:O):O)C%14C(C#CC(:O):O)=C%15)C=C(C#CC(:O):O)C%10C(C#CC(:O):O)=C%11)C=C(C#CC(:O):O)C6C(C#CC(:O):O)=C7,1
SR_apo_v1-3c_pyrrole_Ch_v2-6c_Ni_1_Ch_2B_4H_Ch_1x1x1,0.12233,0.8867,0.263308,5905.88,1555.06,18.82832,14.33841,39709.88634,,,,640,,72,72,48,C43H27N1Ni2O7,0.025641026,6,6c_Ni_1_Ch,76,O:C(:O)C1:C:C:C(:C:C:1)C1:C:C:C(:C:C:1)C1:C:C:C(C2:C:C:C(:C:C:2)C2:C:C:C(:C:C:2)C(:O):O):N:1C1:C:C:C(:C:C:1)C1:C:C:C(:C:C:1)C(:O):O,1
SR_albd_v1-4c_Cu_1_Ch_v2-6c_B_Ch_v3-4c_Cu_1_Ch_v4-3c_B_Ch_1TrU_Ch_2x2x2,0.75524,0.67294,0.974901,1748.19,1704.32,9.42475,5.15447,39188.60688,,,,1152,,432,384,384,C13Cu2H1O8,0.090909091,4,4c_Cu_1_Ch,"8,36,24",O:C(:O)C#CC(:O):O___O:C(:O)C#CC1:C(C#CC(:O):O):C(C#CC(:O):O):C(C#CC(:O):O):C(C#CC(:O):O):C:1C#CC(:O):O___O:C(:O)C#CC1:C:C(C#CC(:O):O):C:C(C#CC(:O):O):C:1,1
SR_asd_v1-4c_B_Ch_v2-4c_bicyclooctane_Ch_v3-8c_Co_2_Ch_ntn_edge_2B_1TrU_Ch_1x1x3,0.17838,0.85238,0.308197,4757.35,1466.2,30.87146,29.47266,44712.62235,,,,879,,60,60,48,C172Cl1Co4H92N24,0.01384083,8,8c_Co_2_Ch,288,C1#CC2:C:C:C(:C:C:2)C2:C:C3C4:C:C:C(C#CC5:C:C:C(:C:C:5)C5=CC6(C=C(C7C:N:N:N:7)C5C(=C6)C5C:N:N:N:5)C5:C:C:C(C#CC6:C:C:C(:C:C:6)C6:C:C7C8:C:C:C(C#CC9:C:C:C(:C:C:9)C9=CC%10(C=C(C%11C:N:N:N:%11)C9C(=C%10)C9C:N:N:N:9)C9:C:C:C(C#CC%10:C:C:C(:C:C:%10)C:3:C:C:2C2:C:C:C(C#CC3:C:C:C(:C:C:3)C3=CC%10(C=C(C%11C:N:N:N:%11)C3C(=C%10)C3C:N:N:N:3)C3:C:C:C(C#CC%10:C:C:C(:C:C:%10)C:7:C:C:6C6:C:C:C(C#CC7:C:C:C(:C:C:7)C7%10C=C(C%11C:N:N:N:%11)C(C(=C7)C7C:N:N:N:7)C(=C%10)C7:C:C:C1:C:C:7):C:C:6):C:C:3):C:C:2):C:C:9):C:C:8):C:C:5):C:C:4,1
SR_apo_v1-3c_triazine_Ch_v2-6c_Zn_1_Ch_1DoU_Ch_2x1x2,0.13121,0.82246,0.51706,4072.44,2105.7,12.2829,8.97246,43892.42562,,,,944,,256,256,192,C24H12N6O13Zn4,0.072727273,6,6c_Zn_1_Ch,27,O:C(:O)C=CC1:N:C(C=CC(:O):O):N:C(C=CC(:O):O):N:1,1
SR_asc_v1-3c_triazine_Ch_v2-6c_Cr_1_Ch_v3-4c_bicyclooctane_Ch_4B_fused_8H_Ch_ntn_edge_2x2x2,0.33088,0.61732,0.837394,1494.76,1251.7,9.28597,5.76729,39347.25807,,,,1712,,120,120,96,C132Cr3H60N6O13,0.014218009,6,6c_Cr_1_Ch,,None,1
SR_asc_v1-3c_B_Ch_v2-6c_Fe_1_Ch_v3-4c_bicyclooctane_Ch_1TrU_Ch_2x2x3,0.23411,0.79808,0.456654,4900.41,2237.79,11.05473,8.72642,60732.93845,,,,1200,,180,180,144,C66Fe3H18O13,0.030927835,6,6c_Fe_1_Ch,384,O:C(:O)C#CC1=CC23C#CC4:C:C5C#CC6=CC7(C#CC8:C:C9C#CC%10=CC%11(C#CC%12:C:C%13C#CC%14=CC%15(C#CC%16:C:C(C#CC(=C2)C1C(C#CC(:O):O)=C3):C:C(C#CC12C=C(C#CC(:O):O)C(C(C#CC(:O):O)=C1)C(C#CC1:C:C3C#CC%17=CC%18(C#CC%19:C:C(C#CC%20=CC%21(C#CC%22:C:C(C#CC%23=CC%24(C#CC(:C:9):C:8)C=C(C#CC(:O):O)C%23C(C#CC(:O):O)=C%24):C:C(C#CC8=CC9(C#CC%23:C:C(C#CC%24=CC%25(C#CC(:C:1):C:3)C=C(C#CC(:O):O)C%24C(C#CC(:O):O)=C%25):C:C(C#CC13C=C(C#CC(:O):O)C(C(C#CC(:O):O)=C1)C(C#CC(:C:5):C:4)=C3):C:%23)C=C(C#CC(:O):O)C8C(C#CC(:O):O)=C9):C:%22)C=C(C#CC(:O):O)C%20C(C#CC(:O):O)=C%21):C:C(C#CC13C=C(C#CC(:O):O)C(C(C#CC(:O):O)=C1)C(C#CC(:C:%13):C:%12)=C3):C:%19)C=C(C#CC(:O):O)C%17C(C#CC(:O):O)=C%18)=C2):C:%16)C=C(C#CC(:O):O)C%14C(C#CC(:O):O)=C%15)C=C(C#CC(:O):O)C%10C(C#CC(:O):O)=C%11)C=C(C#CC(:O):O)C6C(C#CC(:O):O)=C7,1
SR_apo_v1-3c_triazine_Ch_v2-6c_CdZn_1_Ch_2B_2OH_Ch_1x1x1,0.06445,0.90438,0.2545,5305.62,1350.28,21.09979,16.23553,55745.86194,,,,716,,64,64,48,C84Cd3H48N6O37Zn1,0.022857143,6,6c_CdZn_1_Ch,87,O:C(:O)C1:C:C(O):C(:C:C:1O)C1:C:C(O):C(:C:C:1O)C1:N:C(:N:C(:N:1)C1:C:C(O):C(:C:C:1O)C1:C:C(O):C(:C:C:1O)C(:O):O)C1:C:C(O):C(:C:C:1O)C1:C:C(O):C(:C:C:1O)C(:O):O,1
SR_asc_v1-3c_B_Ch_v2-6c_Fe_1_Ch_v3-4c_1anC_Ch_4B_fused_8H_Ch_1x1x2,0.15452,0.85754,0.296319,5380.44,1594.32,16.89319,14.4227,39450.6621,,,,662,,30,30,24,C213Fe3H102O13,0.009146341,6,6c_Fe_1_Ch,327,O:C(:O)C1:C:C2:C:C:C3:C:C(:C:C4:C:C:C(:C:1):C:2:C:3:4)C1(C2:C:C3:C:C:C4:C:C(:C:C5:C:C:C(:C:2):C:3:C:4:5)C(:O):O)C2:C:C3:C:C:C4:C:C(:C:C5:C:C:C(:C:2):C:3:C:4:5)C2:C:C3:C:C(:C:2)C2:C:C4:C:C:C5:C:C(:C:C6:C:C:C(:C:2):C:4:C:5:6)C(C2:C:C4:C:C:C5:C:C(:C:C6:C:C:C(:C:2):C:4:C:5:6)C(:O):O)(C2:C:C4:C:C:C5:C:C(:C:C6:C:C:C(:C:2):C:4:C:5:6)C(:O):O)C2:C:C4:C:C:C5:C:C(:C:C6:C:C:C(:C:2):C:4:C:5:6)C2:C:C(:C:C(:C:2)C2:C:C4:C:C:C5:C:C(:C:C6:C:C:C(:C:2):C:4:C:5:6)C(C2:C:C4:C:C:C5:C:C(:C:C6:C:C:C(:C:2):C:4:C:5:6)C(:O):O)(C2:C:C4:C:C:C5:C:C(:C:C6:C:C:C(:C:2):C:4:C:5:6)C(:O):O)C2:C:C4:C:C:C5:C:C3:C:C3:C:C:C(:C:2):C:4:C:5:3)C2:C:C3:C:C:C4:C:C1:C:C1:C:C:C(:C:2):C:3:C:4:1,1
SR_asd_v1-4c_B_Ch_v2-4c_bicyclooctane_Ch_v3-8c_Mn_1_Ch_ntn_edge_3B_fused_8H_Ch_1x1x3,0.21368,0.8102,0.406176,3749.19,1522.83,24.96922,24.29479,33825.98185,,,,855,,60,60,48,C164Cl1H84Mn4N32,0.014234875,8,8c_Mn_1_Ch,280,C1=C2C3:C:C:C4:C(:C:C:C5:C:C(:C:C:C:5:4)C4:C:C5C6:C:C:C7:C(:C:C:C8:C:C(:C:C:C:8:7)C7=CC8(C=C(C9:N:N:N:N:9)C7C(=C8)C7:N:N:N:N:7)C7:C:C:C8:C(:C:C:C9:C:C(:C:C:C:9:8)C8:C:C9C%10:C:C:C%11:C(:C:C:C%12:C:C(:C:C:C:%12:%11)C%11=CC%12(C=C(C%13:N:N:N:N:%13)C%11C(=C%12)C%11:N:N:N:N:%11)C%11:C:C:C%12:C(:C:C:C%13:C:C(:C:C:C:%13:%12)C:5:C:C:4C4:C:C:C5:C(:C:C:C%12:C:C(:C:C:C:%12:5)C5=CC%12(C=C(C%13:N:N:N:N:%13)C5C(=C%12)C5:N:N:N:N:5)C5:C:C:C%12:C(:C:C:C%13:C:C(:C:C:C:%13:%12)C:9:C:C:8C8:C:C:C9:C(:C:C:C%12:C:C(:C:C:C:%12:9)C19C=C(C1:N:N:N:N:1)C2C(=C9)C1:N:N:N:N:1):C:8):C:5):C:4):C:%11):C:%10):C:7):C:6):C:3,1
SR_asv_v1-4c_Ni_1_Ch_v2-4c_bicyclooctane_Ch_ntn_edge_1B_2SH_Ch_2x2x2,0.17366,0.658,0.800843,1685.49,1349.81,11.6873,9.5265,50942.26379,,,,2144,,144,128,128,C36H20Ni1O4S6,0.015151515,4,4c_Ni_1_Ch,264,O:C(:O)C1=CC23C=C4C5:C:C(S):C(:C:C:5S)C5=CC67C=C(C(:O):O)C5C(=C6)C5:C:C(S):C(:C:C:5S)C5=CC68C=C(C(:O):O)C5C(=C6)C5:C:C(S):C(:C:C:5S)C5=CC6(C=C(C(:O):O)C5C(=C6)C5:C:C(S):C(:C:C:5S)C(=C2)C14)C1:C:C(S):C(:C:C:1S)C12C=C(C(:O):O)C4C(=C1)C1:C:C(S):C(:C:C:1S)C1=CC5(C=C(C(:O):O)C1C(=C5)C1:C:C(S):C(:C:C:1S)C1=CC5(C=C(C(:O):O)C1C(=C5)C1:C:C(S):C(:C:C:1S)C1=CC5(C=C(C(:O):O)C1C(=C5)C1:C:C(S):C(:C:C:1S)C4=C2)C1:C:C(S):C8:C:C:1S)C1:C:C(S):C7:C:C:1S)C1:C:C(S):C3:C:C:1S,1
SR_bay_v1-4c_bicyclooctane_Ch_v2-4c_In_1_Ch_1DoU_Ch_2TrU_Ch_1x1x1,0.06737,0.90684,0.256354,5749.25,1473.84,23.86849,17.1361,40545.9197,,,,332,,96,96,96,C51H5In3O24,0.0375,4,4c_In_1_Ch,"10,70",O:C(:O)C#CC#CC(:O):O___O:C(:O)C#CC#CC1=CC2(C=CC34C=C(C#CC#CC(:O):O)C(C(C#CC#CC(:O):O)=C3)C(C#CC#CC(:O):O)=C4)C=C(C#CC#CC(:O):O)C1C(C#CC#CC(:O):O)=C2,1
SR_asv_v1-4c_V_1_Ch_v2-4c_bicyclooctane_Ch_1B_2NH2_Ch_ntn_edge_2x2x2,0.20149,0.78922,0.469994,3860.72,1814.52,16.84574,14.37218,62352.28675,,,,1888,,144,128,128,C30H20N4O4V1,0.017241379,4,4c_V_1_Ch,232,NC1:C:C(:C(N):C:C:1C(:O):O)C12C=C3C4=CC5(C=C6C7=CC8(C=C9C%10=CC%11(C=C%12C(=C1)C3C(=C2)C1=CC2(C=C3C%13=CC%14(C=C(C(=C5)C46)C%13C(=C%14)C4=CC5(C=C(C(=C8)C79)C4C(=C5)C4=CC5(C=C(C(=C%11)C%12%10)C4C(=C5)C(=C2)C13)C1:C:C(N):C(:C:C:1N)C(:O):O)C1:C:C(N):C(:C:C:1N)C(:O):O)C1:C:C(N):C(:C:C:1N)C(:O):O)C1:C:C(N):C(:C:C:1N)C(:O):O)C1:C:C(N):C(:C:C:1N)C(:O):O)C1:C:C(N):C(:C:C:1N)C(:O):O)C1:C:C(N):C(:C:C:1N)C(:O):O,1