name,k,VF,density,ASA_grav,ASA_vol,LPD,PLD,volume,,,,N_atoms,,N_metal_containing_bonds,N_metal_nonmetal_bonds,N_metal_linker_bonds,formula,metal_nonmetal_ratio,metal_node_connectivity,metal_node_name,N_atoms_per_linker,linker_SMILES,N_ccs
SR_act_v1-6c_Zr_1_Ch_v2-3c_triazine_Ch_ntn_edge_1B_2CF3_Ch_1x1x1,0.14694,0.599,1.23098,1204.53,1482.75,7.8463,4.7892,36818.99118,,,,1728,,768,768,192,C27F9H25N9O32Zr6,0.058823529,6,6c_Zr_1_Ch,40,O:C(:O)C1:N:C(:N:C(:N:1)C1:C:C(:C(:C:C:1C(F)(F)F)C1:N:C(:N:C(:N:1)C(:O):O)C(:O):O)C(F)(F)F)C(:O):O,1
SR_aca_v1-4c_porphyrin_Ch_v2-6c_bicyclooctane_Ch_v3-6c_CdZn_1_Ch_2B_2OH_Ch_1x1x1,0.06479,0.8572,0.365561,4598.3,1680.96,20.93334,17.04481,72737.18806,,,,1226,,96,96,72,C302Cd9H176N12O111Zn3,0.019966722,6,6c_CdZn_1_Ch,"142,172",O:C(:O)C1:C:C(O):C(:C:C:1O)C1:C:C(O):C(:C:C:1O)C1:C2:C:C:C(:N:2):C(C2:C:C(O):C(:C:C:2O)C2:C:C(O):C(:C:C:2O)C(:O):O):C2:C:C:C(:[NH]:2):C(C2:C:C(O):C(:C:C:2O)C2:C:C(O):C(:C:C:2O)C(:O):O):C2:C:C:C(:N:2):C(C2:C:C(O):C(:C:C:2O)C2:C:C(O):C(:C:C:2O)C(:O):O):C2:C:C:C:1:[NH]:2___O:C(:O)C1:C:C(O):C(:C:C:1O)C1:C:C(O):C(:C:C:1O)C1=C(C2:C:C(O):C(:C:C:2O)C2:C:C(O):C(:C:C:2O)C(:O):O)C2C(=C(C3:C:C(O):C(:C:C:3O)C3:C:C(O):C(:C:C:3O)C(:O):O)C1C(=C2C1:C:C(O):C(:C:C:1O)C1:C:C(O):C(:C:C:1O)C(:O):O)C1:C:C(O):C(:C:C:1O)C1:C:C(O):C(:C:C:1O)C(:O):O)C1:C:C(O):C(:C:C:1O)C1:C:C(O):C(:C:C:1O)C(:O):O,1
SR_aca_v1-4c_B_Ch_v2-6c_bicyclooctane_Ch_v3-6c_CdZn_1_Ch_1B_2NO2_Ch_1x1x2,0.11159,0.7324,0.780195,1982.06,1546.4,16.64996,14.36041,52595.51525,,,,1420,,192,192,144,C152Cd9H44N36O111Zn3,0.034985423,6,6c_CdZn_1_Ch,"76,112",O:C(:O)C1:C:C(:C(:C:C:1N(:O):O)C1:C:C(:C(:C:C:1C1:C:C(:C(:C:C:1N(:O):O)C(:O):O)N(:O):O)C1:C:C(:C(:C:C:1N(:O):O)C(:O):O)N(:O):O)C1:C:C(:C(:C:C:1N(:O):O)C(:O):O)N(:O):O)N(:O):O___O:C(:O)C1:C:C(:C(:C:C:1N(:O):O)C1=C(C2:C:C(:C(:C:C:2N(:O):O)C(:O):O)N(:O):O)C2C(=C(C3:C:C(:C(:C:C:3N(:O):O)C(:O):O)N(:O):O)C1C(=C2C1:C:C(:C(:C:C:1N(:O):O)C(:O):O)N(:O):O)C1:C:C(:C(:C:C:1N(:O):O)C(:O):O)N(:O):O)C1:C:C(:C(:C:C:1N(:O):O)C(:O):O)N(:O):O)N(:O):O,1
SR_aca_v1-4c_porphyrin_Ch_v2-6c_bicyclooctane_Ch_v3-6c_CdZn_1_Ch_1B_2NH2_Ch_1x1x1,0.10106,0.74522,0.675591,2917.3,1970.9,14.15816,12.01522,28327.13981,,,,866,,96,96,72,C194Cd9H140N48O39Zn3,0.028503563,6,6c_CdZn_1_Ch,"102,112",NC1:C:C(:C(N):C:C:1C(:O):O)C1:C2:C:C:C(:N:2):C(C2:C:C(N):C(:C:C:2N)C(:O):O):C2:C:C:C(:[NH]:2):C(C2:C:C(N):C(:C:C:2N)C(:O):O):C2:C:C:C(:N:2):C(C2:C:C(N):C(:C:C:2N)C(:O):O):C2:C:C:C:1:[NH]:2___NC1:C:C(C(:O):O):C(N):C:C:1C1=C(C2:C:C(N):C(:C:C:2N)C(:O):O)C2C(=C(C3:C:C(N):C(:C:C:3N)C(:O):O)C1C(=C2C1:C:C(N):C(:C:C:1N)C(:O):O)C1:C:C(N):C(:C:C:1N)C(:O):O)C1:C:C(N):C(:C:C:1N)C(:O):O,1
SR_ahr_v1-6c_Ni_1_Ch_v2-6c_Ni_1_Ch_v3-3c_B_Ch_1TrU_Ch_2x2x1,0.14485,0.8354,0.432813,4698.04,2033.37,14.10504,11.15711,102682.0714,,,,1632,,432,432,288,C39H11Ni4O14,0.0625,6,6c_Ni_1_Ch,40,O:C(:O)C#CC1:C:C(C#CC(:O):O):C:C(C#CC2:C:C(C#CC(:O):O):C:C(C#CC(:O):O):C:2):C:1,1
SR_afy_v1-4c_In_1_Ch_v2-4c_1anC_Ch_ntn_edge_1B_2SH_Ch_2x2x1,0.08043,0.79654,0.612578,2252.24,1379.67,22.16267,17.82717,68817.04793,,,,1312,,384,384,384,C34H14In3O24S7,0.037974684,4,4c_In_1_Ch,"6,104",O:C(:O)C(:O):O___O:C(:O)C1:C:C(S):C(:C:C:1S)C(C1:C:C(S):C(:C:C:1S)C(:O):O)(C1:C:C(S):C(:C:C:1S)C(:O):O)C1:C:C(S):C(:C:C:1S)C(C1:C:C(S):C(:C:C:1S)C(:O):O)(C1:C:C(S):C(:C:C:1S)C(:O):O)C1:C:C(S):C(:C:C:1S)C(:O):O,1
SR_ahr_v1-6c_CdZn_1_Ch_v2-6c_B_Ch_v3-3c_B_Ch_ntn_edge_1B_2NH2_Ch_2x2x1,0.26881,0.53578,1.27731,841.432,1074.77,6.505,4.84487,27296.21446,,,,1500,,192,192,144,C66Cd3H36N6O13Zn1,0.033057851,6,6c_CdZn_1_Ch,"480,480",NC1:C:C2C3:C:C(:C:C(:C:3)C3:C4C5:C:C(:C:C(:C:5)C5:C:C(N):C(:C:C:5N)C5:C:C(:C:C(:C:5)C5:C6C7:C:C(:C:C(:C:7)C7:C:C(N):C(:C:C:7N)C7:C:C(:C:C(:C:7)C7:C(C8:C:C(:C:C(:C:8)C:1:C:C:2N)C(:O):O):C1C2:C:C(:C:C(:C:2)C2:C:C(N):C(:C:C:2N)C2:C:C(:C:C(:C:2)C2:C8C9:C:C(:C:C(:C:9)C9:C:C(N):C(:C:C:9N)C9:C:C(:C:C(:C:9)C:3:C3C9:C:C(:C:C(:C:9)C9:C:C(N):C(:C:C:9N)C9:C:C(:C:C(:C:9)C9:C%10C%11:C:C(:C:C(:C:%11)C%11:C:C(N):C(:C:C:%11N)C%11:C:C(:C:C(:C:%11)C:1:C1C%11:C:C(:C:C(:C:%11)C%11:C:C(N):C(:C:C:%11N)C%11:C:C(:C:C(:C:%11)C:3:C:4C3:C:C(:C:C(:C:3)C3:C:C(N):C(:C:C:3N)C3:C:C(:C:C(:C:3)C(:C:2C2:C:C(:C:C(:C:2)C2:C:C(N):C(:C:C:2N)C2:C:C(:C:C(:C:2)C:%10:5)C(:O):O)C(:O):O):C(C2:C:C(:C:C(:C:2)C2:C:C(N):C(:C:C:2N)C2:C:C(:C:C(:C:2)C:7:1)C(:O):O)C(:O):O):C:8C1:C:C(:C:C(:C:1)C1:C:C(N):C(:C:C:1N)C1:C:C(:C:C(:C:1)C:9:6)C(:O):O)C(:O):O)C(:O):O)C(:O):O)C(:O):O)C(:O):O)C(:O):O)C(:O):O)C(:O):O)C(:O):O)C(:O):O)C(:O):O)C(:O):O)C(:O):O)C(:O):O)C(:O):O)C(:O):O)C(:O):O)C(:O):O___NC1:C:C2C3:C:C(:C:C(:C:3)C3:C4C5:C:C(:C:C(:C:5)C5:C:C(N):C(:C:C:5N)C5:C:C(:C:C(:C:5)C5:C6C7:C:C(:C:C(:C:7)C7:C:C(N):C(:C:C:7N)C7:C:C(:C:C(:C:7)C7:C(C8:C:C(:C:C(:C:8)C:1:C:C:2N)C(:O):O):C1C2:C:C(:C:C(:C:2)C2:C:C(N):C(:C:C:2N)C2:C:C(:C:C(:C:2)C2:C8C9:C:C(:C:C(:C:9)C9:C:C(N):C(:C:C:9N)C9:C:C(:C:C(:C:9)C:5:C5C9:C:C(:C:C(:C:9)C9:C:C(N):C(:C:C:9N)C9:C:C(:C:C(:C:9)C:1:C1C9:C:C(:C:C(:C:9)C9:C:C(N):C(:C:C:9N)C9:C:C(:C:C(:C:9)C9:C%10C%11:C:C(:C:C(:C:%11)C%11:C:C(N):C(:C:C:%11N)C%11:C:C(:C:C(:C:%11)C:5:C:6C5:C:C(:C:C(:C:5)C5:C:C(N):C(:C:C:5N)C5:C:C(:C:C(:C:5)C(:C:2C2:C:C(:C:C(:C:2)C2:C:C(N):C(:C:C:2N)C2:C:C(:C:C(:C:2)C:3:%10)C(:O):O)C(:O):O):C(C2:C:C(:C:C(:C:2)C2:C:C(N):C(:C:C:2N)C2:C:C(:C:C(:C:2)C:7:1)C(:O):O)C(:O):O):C:8C1:C:C(:C:C(:C:1)C1:C:C(N):C(:C:C:1N)C1:C:C(:C:C(:C:1)C:4:9)C(:O):O)C(:O):O)C(:O):O)C(:O):O)C(:O):O)C(:O):O)C(:O):O)C(:O):O)C(:O):O)C(:O):O)C(:O):O)C(:O):O)C(:O):O)C(:O):O)C(:O):O)C(:O):O)C(:O):O)C(:O):O)C(:O):O,1
SR_acs_v1-6c_Cr_1_Ch_ntn_edge_3x3x3,3.88176,0.55818,1.51184,505.787,764.67,5.80273,4.60227,29861.70497,,,,1188,,810,810,648,C6Cr3O13,0.157894737,6,6c_Cr_1_Ch,6,O:C(:O)C(:O):O,1
SR_aca_v1-4c_porphyrin_Ch_v2-6c_bicyclooctane_Ch_v3-6c_CdZn_1_Ch_2B_2NO2_Ch_1x1x1,0.04759,0.82192,0.472631,3633.23,1717.17,21.02053,18.57865,73298.26325,,,,1370,,96,96,72,C302Cd9H104N84O183Zn3,0.017830609,6,6c_CdZn_1_Ch,"158,196",O:C(:O)C1:C:C(:C(:C:C:1N(:O):O)C1:C:C(:C(:C:C:1N(:O):O)C1:C2:C:C:C(:N:2):C(C2:C:C(:C(:C:C:2N(:O):O)C2:C:C(:C(:C:C:2N(:O):O)C(:O):O)N(:O):O)N(:O):O):C2:C:C:C(:[NH]:2):C(C2:C:C(:C(:C:C:2N(:O):O)C2:C:C(:C(:C:C:2N(:O):O)C(:O):O)N(:O):O)N(:O):O):C2:C:C:C(:N:2):C(C2:C:C(:C(:C:C:2N(:O):O)C2:C:C(:C(:C:C:2N(:O):O)C(:O):O)N(:O):O)N(:O):O):C2:C:C:C:1:[NH]:2)N(:O):O)N(:O):O___O:C(:O)C1:C:C(:C(:C:C:1N(:O):O)C1:C:C(:C(:C:C:1N(:O):O)C1=C(C2:C:C(:C(:C:C:2N(:O):O)C2:C:C(:C(:C:C:2N(:O):O)C(:O):O)N(:O):O)N(:O):O)C2C(=C(C3:C:C(:C(:C:C:3N(:O):O)C3:C:C(:C(:C:C:3N(:O):O)C(:O):O)N(:O):O)N(:O):O)C1C(=C2C1:C:C(:C(:C:C:1N(:O):O)C1:C:C(:C(:C:C:1N(:O):O)C(:O):O)N(:O):O)N(:O):O)C1:C:C(:C(:C:C:1N(:O):O)C1:C:C(:C(:C:C:1N(:O):O)C(:O):O)N(:O):O)N(:O):O)C1:C:C(:C(:C:C:1N(:O):O)C1:C:C(:C(:C:C:1N(:O):O)C(:O):O)N(:O):O)N(:O):O)N(:O):O)N(:O):O,1
SR_act_v1-6c_Zn_1_Ch_v2-3c_B_Ch_ntn_edge_1B_2CF3_Ch_1x1x1,0.18575,0.5812,1.23931,515.232,638.533,6.93287,3.45809,23261.07589,,,,1184,,256,256,192,C36F9H12O13Zn4,0.057142857,6,6c_Zn_1_Ch,46,O:C(:O)C1:C:C(:C:C(:C:1)C1:C:C(:C(:C:C:1C(F)(F)F)C1:C:C(:C:C(:C:1)C(:O):O)C(:O):O)C(F)(F)F)C(:O):O,1
SR_ahr_v1-6c_CdZn_1_Ch_v2-6c_B_Ch_v3-3c_B_Ch_2B_2NH2_Ch_1x1x1,0.08197,0.8861,0.24692,5841.19,1442.31,22.0359,17.90376,102453.4687,,,,1509,,48,48,36,C228Cd3H198N60O13Zn1,0.008016032,6,6c_CdZn_1_Ch,498,NC1:C:C(:C(N):C:C:1C(:O):O)C1:C:C(N):C(:C:C:1N)C1:C:C2:C:C(:C:1)C1:C:C(N):C(:C:C:1N)C1:C:C(N):C(:C:C:1N)C1:C3C4:C:C(N):C(:C:C:4N)C4:C:C(N):C(:C:C:4N)C4:C:C(:C:C(:C:4)C4:C:C(N):C(:C:C:4N)C4:C:C(N):C(:C:C:4N)C4:C:C(:C:C(:C:4)C4:C:C(N):C(:C:C:4N)C4:C:C(N):C(:C:C:4N)C4:C:1C1:C:C(N):C(:C:C:1N)C1:C:C(N):C(:C:C:1N)C1:C:C(:C:C(:C:1)C1:C:C(N):C(:C:C:1N)C1:C:C(N):C(:C:C:1N)C1:C:C(:C:C(:C:1)C1:C:C(N):C(:C:C:1N)C1:C:C(N):C(:C:C:1N)C:3:C:4C1:C:C(N):C(:C:C:1N)C1:C:C(N):C(:C:C:1N)C1:C:C(:C:C(:C:1)C1:C:C(N):C(:C:C:1N)C1:C:C(N):C2:C:C:1N)C1:C:C(N):C(:C:C:1N)C1:C:C(N):C(:C:C:1N)C(:O):O)C1:C:C(N):C(:C:C:1N)C1:C:C(N):C(:C:C:1N)C(:O):O)C1:C:C(N):C(:C:C:1N)C1:C:C(N):C(:C:C:1N)C(:O):O)C1:C:C(N):C(:C:C:1N)C1:C:C(N):C(:C:C:1N)C(:O):O)C1:C:C(N):C(:C:C:1N)C1:C:C(N):C(:C:C:1N)C(:O):O,1
SR_ahr_v1-6c_CdZn_1_Ch_v2-6c_B_Ch_v3-3c_B_Ch_1B_2CF3_Ch_ntn_edge_2x2x1,0.18976,0.64136,1.01048,1628.74,1645.81,6.68643,5.07481,70754.2871,,,,2724,,192,192,144,C120Cd3F54H36O13Zn1,0.01793722,6,6c_CdZn_1_Ch,,None,1
SR_aca_v1-4c_B_Ch_v2-6c_bicyclooctane_Ch_v3-6c_Zr_1_Ch_1B_2F_Ch_1x1x2,0.11052,0.76952,0.647999,2067,1339.41,22.9749,20.74758,67100.02324,,,,1648,,576,576,144,C76F18H55O48Zr9,0.045685279,6,6c_Zr_1_Ch,"60,88",O:C(:O)C1:C:C(F):C(:C:C:1F)C1:C:C(C2:C:C(F):C(:C:C:2F)C(:O):O):C(:C:C:1C1:C:C(F):C(:C:C:1F)C(:O):O)C1:C:C(F):C(:C:C:1F)C(:O):O___O:C(:O)C1:C:C(F):C(:C:C:1F)C1=C(C2:C:C(F):C(:C:C:2F)C(:O):O)C2C(=C(C3:C:C(F):C(:C:C:3F)C(:O):O)C1C(=C2C1:C:C(F):C(:C:C:1F)C(:O):O)C1:C:C(F):C(:C:C:1F)C(:O):O)C1:C:C(F):C(:C:C:1F)C(:O):O,1
SR_acs_v1-6c_Al_1_Ch_2B_2Br_Ch_2x2x2,0.22651,0.79656,0.700894,2738,1919.05,14.24774,12.9934,77539.43462,,,,1312,,240,240,192,Al3Br12C42H12O13,0.037974684,6,6c_Al_1_Ch,26,O:C(:O)C1:C:C(Br):C(:C:C:1Br)C1:C:C(Br):C(:C:C:1Br)C(:O):O,1
SR_aca_v1-4c_B_Ch_v2-6c_bicyclooctane_Ch_v3-6c_CdZn_1_Ch_2B_2CF3_Ch_1x1x1,0.05973,0.8137,0.546905,2820.86,1542.74,25.0979,22.31135,70383.39624,,,,1358,,96,96,72,C332Cd9F216H80O39Zn3,0.017991004,6,6c_CdZn_1_Ch,"148,220",O:C(:O)C1:C:C(:C(:C:C:1C(F)(F)F)C1:C:C(:C(:C:C:1C(F)(F)F)C1:C:C(:C(:C:C:1C1:C:C(:C(:C:C:1C(F)(F)F)C1:C:C(:C(:C:C:1C(F)(F)F)C(:O):O)C(F)(F)F)C(F)(F)F)C1:C:C(:C(:C:C:1C(F)(F)F)C1:C:C(:C(:C:C:1C(F)(F)F)C(:O):O)C(F)(F)F)C(F)(F)F)C1:C:C(:C(:C:C:1C(F)(F)F)C1:C:C(:C(:C:C:1C(F)(F)F)C(:O):O)C(F)(F)F)C(F)(F)F)C(F)(F)F)C(F)(F)F___O:C(:O)C1:C:C(:C(:C:C:1C(F)(F)F)C1:C:C(:C(:C:C:1C(F)(F)F)C1=C(C2:C:C(:C(:C:C:2C(F)(F)F)C2:C:C(:C(:C:C:2C(F)(F)F)C(:O):O)C(F)(F)F)C(F)(F)F)C2C(=C(C3:C:C(:C(:C:C:3C(F)(F)F)C3:C:C(:C(:C:C:3C(F)(F)F)C(:O):O)C(F)(F)F)C(F)(F)F)C1C(=C2C1:C:C(:C(:C:C:1C(F)(F)F)C1:C:C(:C(:C:C:1C(F)(F)F)C(:O):O)C(F)(F)F)C(F)(F)F)C1:C:C(:C(:C:C:1C(F)(F)F)C1:C:C(:C(:C:C:1C(F)(F)F)C(:O):O)C(F)(F)F)C(F)(F)F)C1:C:C(:C(:C:C:1C(F)(F)F)C1:C:C(:C(:C:C:1C(F)(F)F)C(:O):O)C(F)(F)F)C(F)(F)F)C(F)(F)F)C(F)(F)F,1
SR_ahr_v1-6c_CdZn_1_Ch_v2-6c_B_Ch_v3-3c_triazine_Ch_1B_2furan_Ch_1x1x1,0.15073,0.90918,0.22783,5702.67,1299.24,24.99773,19.31225,90324.35358,,,,915,,48,48,36,C180Cd3H60N18O43Zn1,0.013289037,6,6c_CdZn_1_Ch,300,O:C(:O)C1:C:C2:C:C3:O:C(:C:C:3:C:C:2:O:1)C1:N:C2:N:C(:N:1)C1:C:C3:C:C4:O:C(:C:C:4:C:C:3:O:1)C1:C3C4:C:C5:C:C6:O:C(:C:C:6:C:C:5:O:4)C4:N:C(:N:C(:N:4)C4:C:C5:C:C6:O:C(:C:C:6:C:C:5:O:4)C4:N:C(:N:C(:N:4)C4:C:C5:C:C6:O:C(:C:C:6:C:C:5:O:4)C4:C:1C1:C:C5:C:C6:O:C(:C:C:6:C:C:5:O:1)C1:N:C(:N:C(:N:1)C1:C:C5:C:C6:O:C(:C:C:6:C:C:5:O:1)C1:N:C(:N:C(:N:1)C1:C:C5:C:C6:O:C(:C:C:6:C:C:5:O:1)C:3:C:4C1:C:C3:C:C4:O:C(:C:C:4:C:C:3:O:1)C1:N:C(:N:C(:N:1)C1:C:C3:C:C4:O:C2:C:C:4:C:C:3:O:1)C1:C:C2:C:C3:O:C(:C:C:3:C:C:2:O:1)C(:O):O)C1:C:C2:C:C3:O:C(:C:C:3:C:C:2:O:1)C(:O):O)C1:C:C2:C:C3:O:C(:C:C:3:C:C:2:O:1)C(:O):O)C1:C:C2:C:C3:O:C(:C:C:3:C:C:2:O:1)C(:O):O)C1:C:C2:C:C3:O:C(:C:C:3:C:C:2:O:1)C(:O):O,1
SR_act_v1-6c_Zn_1_Ch_v2-3c_B_Ch_1B_2Br_Ch_1x1x1,0.08541,0.8118,0.65776,3316.51,2181.47,13.87049,8.2575,101832.464,,,,2000,,256,256,192,Br15C69H24O13Zn4,0.033057851,6,6c_Zn_1_Ch,80,O:C(:O)C1:C:C(Br):C(:C:C:1Br)C1:C:C(:C:C(:C:1)C1:C:C(Br):C(:C:C:1Br)C1:C:C(:C:C(:C:1)C1:C:C(Br):C(:C:C:1Br)C(:O):O)C1:C:C(Br):C(:C:C:1Br)C(:O):O)C1:C:C(Br):C(:C:C:1Br)C(:O):O,1
SR_asc_v1-3c_B_Ch_v2-6c_Cr_1_Ch_v3-4c_bicyclooctane_Ch_ntn_edge_1B_2thiophene_Ch_2x2x2,0.31014,0.65672,0.810136,1975.86,1600.71,8.8704,6.02848,38785.61907,,,,1376,,120,120,96,C102Cr3H42O13S12,0.017751479,6,6c_Cr_1_Ch,,None,1
SR_asc_v1-3c_B_Ch_v2-6c_Cr_1_Ch_v3-4c_bicyclooctane_Ch_1B_4F_Ch_2x2x2,0.16254,0.77786,0.577173,3365.24,1942.33,12.28566,10.441,71015.45328,,,,1568,,120,120,96,C114Cr3F48H18O13,0.015544041,6,6c_Cr_1_Ch,,None,1
SR_asc_v1-3c_B_Ch_v2-6c_Cr_1_Ch_v3-4c_bicyclooctane_Ch_1B_2CF3_Ch_2x2x2,0.15215,0.71728,0.732291,2492.38,1825.14,10.78319,8.53592,72550.21261,,,,2144,,120,120,96,C138Cr3F72H42O13,0.011320755,6,6c_Cr_1_Ch,,None,1
SR_albd_v1-4c_Cu_1_Ch_v2-6c_B_Ch_v3-4c_Cu_1_Ch_v4-3c_B_Ch_ntn_edge_1B_2NO2_Ch_2x2x2,0.88974,0.61858,1.14809,0,0,6.56007,3.68449,40683.97907,,,,1536,,432,384,384,C13Cu2H3N2O12,0.066666667,4,4c_Cu_1_Ch,"6,108,18",O:C(:O)C(:O):O___O:C(:O)C1:C:C(:C(:C:C:1N(:O):O)C1:C(C2:C:C(:C(:C:C:2N(:O):O)C(:O):O)N(:O):O):C(C2:C:C(:C(:C:C:2N(:O):O)C(:O):O)N(:O):O):C(C2:C:C(:C(:C:C:2N(:O):O)C(:O):O)N(:O):O):C(C2:C:C(:C(:C:C:2N(:O):O)C(:O):O)N(:O):O):C:1C1:C:C(:C(:C:C:1N(:O):O)C(:O):O)N(:O):O)N(:O):O___O:C(:O)C1:C:C(:C:C(:C:1)C(:O):O)C(:O):O,1
SR_asc_v1-3c_triazine_Ch_v2-6c_Cr_1_Ch_v3-4c_bicyclooctane_Ch_1DoU_Ch_2x2x2,0.1889,0.76236,0.537459,3867.44,2078.59,10.38705,8.30767,34432.20195,,,,944,,120,120,96,C60Cr3H36N6O13,0.026086957,6,6c_Cr_1_Ch,456,O:C(:O)C=CC1=CC2(C=CC(:O):O)C=C3C=CC4:N:C5C=CC6=CC7(C=CC(:O):O)C=C(C=CC(:O):O)C6C(C=CC6:N:C8C=CC9=CC%10(C=CC(:O):O)C=C(C=CC(:O):O)C9C(C=CC9:N:C%11C=CC%12=CC%13(C=CC(:O):O)C=C(C=CC(:O):O)C%12C(C=CC%12:N:C(C=CC(=C2)C13):N:C(C=CC1=CC2(C=CC(:O):O)C=C(C=CC(:O):O)C1C(C=CC1:N:C3C=CC%14=CC%15(C=CC(:O):O)C=C(C=CC(:O):O)C%14C(C=CC%14:N:C(C=CC%16=CC%17(C=CC(:O):O)C=C(C=CC(:O):O)C%16C(C=CC(:N:4):N:5)=C%17):N:C(C=CC4=CC5(C=CC(:O):O)C=C(C=CC(:O):O)C4C(C=CC4:N:C(C=CC%16=CC%17(C=CC(:O):O)C=C(C=CC(:O):O)C%16C(C=CC(:N:6):N:8)=C%17):N:C(C=CC6=CC8(C=CC(:O):O)C=C(C=CC(:O):O)C6C(C=CC6:N:C(C=CC%16=CC%17(C=CC(:O):O)C=C(C=CC(:O):O)C%16C(C=CC(:N:%11):N:9)=C%17):N:C(C=CC9=CC%11(C=CC(:O):O)C=C(C=CC(:O):O)C9C(C=CC(:N:1):N:3)=C%11):N:6)=C8):N:4)=C5):N:%14)=C%15)=C2):N:%12)=C%13)=C%10)=C7,1
SR_apo_v1-3c_B_Ch_v2-6c_CdZn_1_Ch_2B_4Br_Ch_1x1x1,0.02985,0.85472,0.652398,2358.75,1538.84,19.22381,13.5727,56332.80926,,,,644,,64,64,48,Br48C90Cd3H6O13Zn1,0.025477707,6,6c_CdZn_1_Ch,78,O:C(:O)C1:C(Br):C(Br):C(:C(Br):C:1Br)C1:C(Br):C(Br):C(C2:C:C(:C:C(:C:2)C2:C(Br):C(Br):C(:C(Br):C:2Br)C2:C(Br):C(Br):C(C(:O):O):C(Br):C:2Br)C2:C(Br):C(Br):C(:C(Br):C:2Br)C2:C(Br):C(Br):C(C(:O):O):C(Br):C:2Br):C(Br):C:1Br,1
SR_apo_v1-3c_B_Ch_v2-6c_CdZn_1_Ch_1B_4Br_Ch_2x1x1,0.05219,0.76544,1.01284,1929.22,1953.99,11.83526,8.08521,41748.85105,,,,808,,128,128,96,Br24C54Cd3H6O13Zn1,0.041237113,6,6c_CdZn_1_Ch,48,O:C(:O)C1:C(Br):C(Br):C(C2:C:C(:C:C(:C:2)C2:C(Br):C(Br):C(C(:O):O):C(Br):C:2Br)C2:C(Br):C(Br):C(C(:O):O):C(Br):C:2Br):C(Br):C:1Br,1
SR_apo_v1-3c_triazine_Ch_v2-6c_Zn_1_Ch_1B_2CH3_Ch_2x1x1,0.11437,0.81906,0.431396,4629.91,1997.32,13.55539,9.68878,40730.01231,,,,1048,,128,128,96,C60H48N6O13Zn4,0.031496063,6,6c_Zn_1_Ch,63,CC1:C:C(C2:N:C(:N:C(:N:2)C2:C:C(C):C(:C:C:2C)C(:O):O)C2:C:C(C):C(:C:C:2C)C(:O):O):C(C):C:C:1C(:O):O,1
SR_ant_v1-3c_B_Ch_v2-6c_Zn_1_Ch_1B_4Br_Ch_2x2x1,0.06098,0.78922,0.881093,1987.12,1750.84,13.53278,11.85858,91858.75172,,,,1616,,256,256,192,Br24C54H6O13Zn4,0.041237113,6,6c_Zn_1_Ch,48,O:C(:O)C1:C(Br):C(Br):C(C2:C:C(:C:C(:C:2)C2:C(Br):C(Br):C(C(:O):O):C(Br):C:2Br)C2:C(Br):C(Br):C(C(:O):O):C(Br):C:2Br):C(Br):C:1Br,1
SR_aste_v1-6c_Cr_1_Ch_v2-6c_Cr_1_Ch_1B_4Br_Ch_ntn_edge_1x1x1,0.25302,0.71278,1.17948,1043.72,1231.04,27.99166,4.85253,154987.868,,,,3680,,1200,1200,960,Br48C102Cr15O65,0.069767442,6,6c_Cr_1_Ch,"6,16",O:C(:O)C(:O):O___O:C(:O)C1:C(Br):C(Br):C(C(:O):O):C(Br):C:1Br,1
SR_asd_v1-4c_pyrene_Ch_v2-4c_bicyclooctane_Ch_v3-8c_Zr_1_Ch_1B_2Br_Ch_ntn_edge_2x2x2,0.2381,0.63222,1.15307,1551.89,1789.43,10.7659,7.07862,44261.18368,,,,1872,,384,384,128,Br8C60H30O16Zr3,0.026315789,8,8c_Zr_1_Ch,,None,1
SR_asc_v1-3c_triazine_Ch_v2-6c_Cr_1_Ch_v3-4c_bicyclooctane_Ch_ntn_edge_2B_2CN_Ch_2x2x2,0.28981,0.5761,0.927184,980.046,908.684,8.96268,6.12688,39156.89787,,,,1712,,120,120,96,C132Cr3H36N30O13,0.014218009,6,6c_Cr_1_Ch,,None,1
SR_asd_v1-4c_pyrene_Ch_v2-4c_bicyclooctane_Ch_v3-8c_Co_2_Ch_ntn_edge_1B_2DoU_Ch_1x1x3,0.16628,0.84986,0.314299,4982.61,1566.03,28.84541,27.34514,41689.19772,,,,867,,60,60,48,C160Cl1Co4H100N24,0.014035088,8,8c_Co_2_Ch,284,C1=CC2:C:C:C(C=CC3:C:C4C=CC5:C:C:C(C=CC6=CC7(C=CC8:C:C:C(C=CC9:C:C%10C=CC%11:C:C:C(C=CC%12=CC%13(C=CC%14:C:C:C(C=CC%15:C:C(C=CC%16:C:C:C(C=CC%17=CC%18(C=CC%19:C:C:C(C=CC%20:C:C(C=CC%21:C:C:C(C=CC%22%23C=C1C(C(=C%22)C1C:N:N:N:1)C(=C%23)C1C:N:N:N:1):C:C:%21):C1:C:C:C:9:C9:C:%10:C:C:C:%20:C:1:9):C:C:%19)C=C(C1C:N:N:N:1)C%17C(=C%18)C1C:N:N:N:1):C:C:%16):C1:C:C:C:3:C3:C:4:C:C:C:%15:C:1:3):C:C:%14)C=C(C1C:N:N:N:1)C%12C(=C%13)C1C:N:N:N:1):C:C:%11):C:C:8)C=C(C1C:N:N:N:1)C6C(=C7)C1C:N:N:N:1):C:C:5):C:C:2,1
SR_apo_v1-3c_pyrrole_Ch_v2-6c_CdZn_1_Ch_1B_2TrU_Ch_1x1x1,0.05062,0.9313,0.183805,6689.75,1229.61,22.60513,19.34656,56219.10666,,,,484,,64,64,48,C74Cd3H28N2O13Zn1,0.034188034,6,6c_CdZn_1_Ch,58,O:C(:O)C#CC1:C:C:C(C#CC2:C:C:C(C#CC3:C:C:C(C#CC(:O):O):C:C:3):N:2C#CC2:C:C:C(C#CC(:O):O):C:C:2):C:C:1,1
SR_apo_v1-3c_B_Ch_v2-6c_Ni_1_Ch_ntn_edge_3x2x2,0.34435,0.55254,1.42551,0,0,4.56586,2.88667,38190.37358,,,,2112,,864,864,576,C9H4Ni2O7,0.1,6,6c_Ni_1_Ch,18,O:C(:O)C1:C:C(:C:C(:C:1)C(:O):O)C(:O):O,1
SR_asd_v1-4c_B_Ch_v2-4c_bicyclooctane_Ch_v3-8c_Co_2_Ch_2B_2SH_Ch_ntn_edge_1x1x3,0.17157,0.7637,0.546611,2624.1,1434.36,23.11045,20.56293,32818.4657,,,,927,,60,60,48,C156Cl1Co4H92N24S32,0.013114754,8,8c_Co_2_Ch,304,SC1:C:C2:C(S):C:C:1C1=CC3(C=C(C4C:N:N:N:4)C1C(=C3)C1C:N:N:N:1)C1:C:C(S):C(:C:C:1S)C1:C:C(S):C(:C:C:1S)C1:C:C3C4:C:C(S):C(:C:C:4S)C4:C:C(S):C(:C:C:4S)C45C=C(C6C:N:N:N:6)C(C(=C4)C4C:N:N:N:4)C(=C5)C4:C:C(S):C(:C:C:4S)C4:C:C(S):C(:C:C:4S)C4:C:C5C6:C:C(S):C(:C:C:6S)C6:C:C(S):C(:C:C:6S)C67C=C(C8C:N:N:N:8)C(C(=C6)C6C:N:N:N:6)C(=C7)C6:C:C(S):C(:C:C:6S)C6:C:C(S):C(:C:C:6S)C:3:C:C:1C1:C:C(S):C(:C:C:1S)C1:C:C(S):C(:C:C:1S)C13C=C(C6C:N:N:N:6)C(C(=C1)C1C:N:N:N:1)C(=C3)C1:C:C(S):C(:C:C:1S)C1:C:C(S):C(:C:C:1S)C:5:C:C:4C1:C:C(S):C2:C:C:1S,1
SR_apo_v1-3c_triazine_Ch_v2-6c_Zn_1_Ch_2B_4H_Ch_1x1x1,0.10643,0.91808,0.192794,6244.62,1203.93,22.29344,17.46501,55499.54514,,,,620,,64,64,48,C84H48N6O13Zn4,0.026490066,6,6c_Zn_1_Ch,75,O:C(:O)C1:C:C:C(:C:C:1)C1:C:C:C(:C:C:1)C1:N:C(:N:C(:N:1)C1:C:C:C(:C:C:1)C1:C:C:C(:C:C:1)C(:O):O)C1:C:C:C(:C:C:1)C1:C:C:C(:C:C:1)C(:O):O,1
SR_asc_v1-3c_triazine_Ch_v2-6c_Fe_1_Ch_v3-4c_bicyclooctane_Ch_ntn_edge_1B_2CN_Ch_2x2x2,0.25061,0.57162,0.976064,1148.05,1120.57,6.92012,4.7084,25968.3532,,,,1136,,120,120,96,C84Fe3H24N18O13,0.021582734,6,6c_Fe_1_Ch,,None,1
SR_asv_v1-4c_Cu_1_Ch_v2-4c_1anC_Ch_1B_2SH_Ch_ntn_edge_2x2x2,0.3258,0.56964,1.12249,1065.07,1195.53,8.24007,6.57417,21625.52046,,,,1056,,144,128,128,C16Cu1H8O4S4,0.03125,4,4c_Cu_1_Ch,128,O:C(:O)C1:C:C(S):C(:C:C:1S)C12C3(C4:C:C(S):C(:C:C:4S)C(:O):O)C4(C5:C:C(S):C(:C:C:5S)C(:O):O)C1(C1:C:C(S):C(:C:C:1S)C(:O):O)C1(C5:C:C(S):C(:C:C:5S)C(:O):O)C2(C2:C:C(S):C(:C:C:2S)C(:O):O)C3(C2:C:C(S):C(:C:C:2S)C(:O):O)C41C1:C:C(S):C(:C:C:1S)C(:O):O,1
SR_apo_v1-3c_pyrrole_Ch_v2-6c_CdZn_1_Ch_1B_4CN_Ch_2x1x1,0.0822,0.71524,0.748994,2759.2,2066.62,9.66147,7.31931,33125.64278,,,,968,,128,128,96,C74Cd3H4N26O13Zn1,0.034188034,6,6c_CdZn_1_Ch,58,N#CC1:C(C#N):C(:C(C#N):C(C#N):C:1C(:O):O)C1:C:C:C(C2:C(C#N):C(C#N):C(C(:O):O):C(C#N):C:2C#N):N:1C1:C(C#N):C(C#N):C(C(:O):O):C(C#N):C:1C#N,1
SR_asd_v1-4c_pyrene_Ch_v2-4c_bicyclooctane_Ch_v3-8c_Mn_1_Ch_2B_1DoU_Ch_ntn_edge_1x1x3,0.15514,0.85908,0.296373,5278.59,1564.43,32.13062,30.90205,50805.6638,,,,987,,60,60,48,C184Cl1H108Mn4N32,0.012307692,8,8c_Mn_1_Ch,324,C1=CC2:C:C:C(:C:C:2)C2:C:C3C4:C:C:C(C=CC5:C:C:C(:C:C:5)C5=CC6(C=C(C7:N:N:N:N:7)C5C(=C6)C5:N:N:N:N:5)C5:C:C:C(C=CC6:C:C:C(:C:C:6)C6:C:C7C8:C:C:C(C=CC9:C:C:C(:C:C:9)C9=CC%10(C=C(C%11:N:N:N:N:%11)C9C(=C%10)C9:N:N:N:N:9)C9:C:C:C(C=CC%10:C:C:C(:C:C:%10)C%10:C:C(C%11:C:C:C(C=CC%12:C:C:C(:C:C:%12)C%12=CC%13(C=C(C%14:N:N:N:N:%14)C%12C(=C%13)C%12:N:N:N:N:%12)C%12:C:C:C(C=CC%13:C:C:C(:C:C:%13)C%13:C:C(C%14:C:C:C(C=CC%15:C:C:C(:C:C:%15)C%15%16C=C(C%17:C:C:C1:C:C:%17)C(C(=C%15)C1:N:N:N:N:1)C(=C%16)C1:N:N:N:N:1):C:C:%14):C1:C:C:C:6:C6:C:7:C:C:C:%13:C:1:6):C:C:%12):C:C:%11):C1:C:C:C:2:C2:C:3:C:C:C:%10:C:1:2):C:C:9):C:C:8):C:C:5):C:C:4,1