name,k,VF,density,ASA_grav,ASA_vol,LPD,PLD,volume,,,,N_atoms,,N_metal_containing_bonds,N_metal_nonmetal_bonds,N_metal_linker_bonds,formula,metal_nonmetal_ratio,metal_node_connectivity,metal_node_name,N_atoms_per_linker,linker_SMILES,N_ccs
SR_asv_v1-4c_Cu_1_Ch_v2-4c_bicyclooctane_Ch_1B_4H_Ch_1TrU_Ch_2x2x2,0.14197,0.8564,0.313623,5038.33,1580.13,22.67196,18.66368,97603.28216,,,,1824,,144,128,128,C36Cu1H16O4,0.017857143,4,4c_Cu_1_Ch,224,O:C(:O)C1:C:C:C(:C:C:1)C12C=C3C#CC4=CC5(C=C6C#CC7=CC8(C=C9C#CC%10=CC%11(C=C%12C#CC(=C1)C3C(C#CC1=CC3(C=C%13C#CC%14=CC%15(C=C(C#CC(=C5)C46)C%14C(C#CC4=CC5(C=C(C#CC(=C8)C79)C4C(C#CC4=CC6(C=C(C#CC(=C%11)C%12%10)C4C(C#CC(=C3)C1%13)=C6)C1:C:C:C(:C:C:1)C(:O):O)=C5)C1:C:C:C(:C:C:1)C(:O):O)=C%15)C1:C:C:C(:C:C:1)C(:O):O)C1:C:C:C(:C:C:1)C(:O):O)=C2)C1:C:C:C(:C:C:1)C(:O):O)C1:C:C:C(:C:C:1)C(:O):O)C1:C:C:C(:C:C:1)C(:O):O,1
SR_asv_v1-4c_V_1_Ch_v2-4c_1anC_Ch_1DoU_Ch_ntn_edge_2x2x2,0.50769,0.60668,1.04996,1179.76,1238.7,8.7629,6.20783,10884.15949,,,,544,,144,128,128,C8H4O4V1,0.0625,4,4c_V_1_Ch,64,O:C(:O)C=CC12C3(C=CC(:O):O)C4(C=CC(:O):O)C1(C=CC(:O):O)C1(C=CC(:O):O)C2(C=CC(:O):O)C3(C=CC(:O):O)C41C=CC(:O):O,1
SR_bap_v1-4c_1anC_Ch_v2-4c_In_1_Ch_1DoU_Ch_1x1x1,0.07051,0.8231,0.537485,2844.58,1528.92,19.51672,17.49975,31395.53508,,,,576,,192,192,192,C29H16In3O24,0.043478261,4,4c_In_1_Ch,"10,48",O:C(:O)C=CC(:O):O___O:C(:O)C=CC(C=CC(:O):O)(C=CC(:O):O)C=CC(C=CC(:O):O)(C=CC(:O):O)C=CC(:O):O,1
SR_baa_v1-4c_Cd_1_Ch_v2-4c_1anC_Ch_1B_2NO2_Ch_ntn_edge_2x2x2,0.45531,0.32886,1.94723,0,0,4.51718,1.39946,17641.47287,,,,1376,,256,256,256,C18Cd1H4N4O16,0.023809524,4,4c_Cd_1_Ch,84,O:C(:O)C1(C(:O):O)C2:C:C(:C(:C:C:2N(:O):O)C(C(:O):O)(C(:O):O)C2:C:C(:C(:C:C:2N(:O):O)C(C(:O):O)(C(:O):O)C2:C:C(:C(:C:C:2N(:O):O)C(C(:O):O)(C(:O):O)C2:C:C(:C1:C:C:2N(:O):O)N(:O):O)N(:O):O)N(:O):O)N(:O):O,1
SR_baa_v1-4c_Cd_1_Ch_v2-4c_1anC_Ch_ntn_edge_2B_2NH2_Ch_2x2x2,0.39188,0.4432,1.35527,0,0,4.94269,2.0083,28908.52945,,,,2272,,256,256,256,C30Cd1H24N8O8,0.014285714,4,4c_Cd_1_Ch,140,NC1:C:C2:C(N):C:C:1C1:C:C(N):C(:C:C:1N)C(C(:O):O)(C(:O):O)C1:C:C(N):C(:C:C:1N)C1:C:C(N):C(:C:C:1N)C(C(:O):O)(C(:O):O)C1:C:C(N):C(:C:C:1N)C1:C:C(N):C(:C:C:1N)C(C(:O):O)(C(:O):O)C1:C:C(N):C(:C:C:1N)C1:C:C(N):C(:C:C:1N)C2(C(:O):O)C(:O):O,1
SR_ato_v1-4c_In_1_Ch_1B_2SH_Ch_1x1x2,0.07687,0.85668,0.401332,4193.83,1683.12,25.91298,24.0626,196880.6009,,,,2664,,576,576,576,C16H8In1O8S4,0.027777778,4,4c_In_1_Ch,18,O:C(:O)C1:C:C(S):C(:C:C:1S)C(:O):O,1
SR_asv_v1-4c_Ni_1_Ch_v2-4c_bicyclooctane_Ch_2TrU_Ch_1DoU_Ch_1x1x2,0.14108,0.88206,0.256499,5310.77,1362.21,25.02293,19.55865,26994.41033,,,,408,,36,32,32,C32H14Ni1O4,0.02,4,4c_Ni_1_Ch,200,O:C(:O)C#CC#CC12C=C3C=CC4=CC5(C#CC#CC(:O):O)C=C6C=CC7=CC8(C#CC#CC(:O):O)C=C9C=CC%10=CC%11(C#CC#CC(:O):O)C=C%12C=CC(=C1)C3C(C=CC1=CC3(C#CC#CC(:O):O)C=C%13C=CC%14=CC%15(C#CC#CC(:O):O)C=C(C=CC(=C5)C46)C%14C(C=CC4=CC5(C#CC#CC(:O):O)C=C(C=CC(=C8)C79)C4C(C=CC4=CC6(C#CC#CC(:O):O)C=C(C=CC(=C%11)C%12%10)C4C(C=CC(=C3)C1%13)=C6)=C5)=C%15)=C2,1
SR_atv_v1-4c_bicyclooctane_Ch_v2-4c_In_1_Ch_1DoU_Ch_1TrU_Ch_1B_4H_Ch_1x2x1,0.17571,0.81566,0.431559,4586.56,1979.37,15.32088,12.58179,48977.57652,,,,1232,,128,128,128,C44H24In1O8,0.013157895,4,4c_In_1_Ch,,None,1
SR_aww_v1-4c_Cd_1_Ch_v2-4c_bicyclooctane_Ch_1B_2F_Ch_ntn_edge_1x1x2,0.08783,0.76918,0.706502,2538.82,1793.68,15.54573,11.80005,29674.79998,,,,768,,256,256,256,C11Cd1F1H3O8,0.043478261,4,4c_Cd_1_Ch,"6,112,112",O:C(:O)C(:O):O___O:C(:O)C1=CC23C=C(C(:O):O)C1C(=C2)C1:C:C(F):C(:C:C:1F)C12C=C(C(:O):O)C(C(=C1)C(:O):O)C(=C2)C1:C:C(F):C(:C:C:1F)C12C=C(C(:O):O)C(C(=C1)C(:O):O)C(=C2)C1:C:C(F):C(:C:C:1F)C12C=C(C(:O):O)C(C(=C1)C(:O):O)C(=C2)C1:C:C(F):C3:C:C:1F___O:C(:O)C1=CC23C=C(C(:O):O)C1C(=C2)C1:C:C(F):C(:C:C:1F)C1=CC2(C=C(C(:O):O)C1C(=C2)C(:O):O)C1:C:C(F):C(:C:C:1F)C12C=C(C(:O):O)C(C(=C1)C(:O):O)C(=C2)C1:C:C(F):C(:C:C:1F)C1=CC2(C=C(C(:O):O)C1C(=C2)C(:O):O)C1:C:C(F):C3:C:C:1F,1
SR_asv_v1-4c_Cu_1_Ch_v2-4c_bicyclooctane_Ch_ntn_edge_1B_2NH2_Ch_2x2x2,0.19433,0.71012,0.64905,1919.82,1246.06,13.58512,11.73648,54878.88194,,,,2336,,144,128,128,C36Cu1H26N6O4,0.013888889,4,4c_Cu_1_Ch,288,NC1:C:C2C3=CC4(C=C5C6:C:C(N):C(:C:C:6N)C6=CC7(C=C8C9:C:C(N):C(:C:C:9N)C9=CC%10(C=C%11C%12:C:C(N):C(:C:C:%12N)C%12=CC%13(C=C(C:1:C:C:2N)C%12C(=C%13)C1:C:C(N):C(:C:C:1N)C1=CC2(C=C%12C%13:C:C(N):C(:C:C:%13N)C%13=CC%14(C=C(C%15:C:C(N):C(:C:C:%15N)C(=C4)C35)C%13C(=C%14)C3:C:C(N):C(:C:C:3N)C3=CC4(C=C(C5:C:C(N):C(:C:C:5N)C(=C7)C68)C3C(=C4)C3:C:C(N):C(:C:C:3N)C3=CC4(C=C(C5:C:C(N):C(:C:C:5N)C(=C%10)C%119)C3C(=C4)C3:C:C(N):C(:C:C:3N)C(=C2)C1%12)C(:O):O)C(:O):O)C(:O):O)C(:O):O)C(:O):O)C(:O):O)C(:O):O)C(:O):O,1
SR_asv_v1-4c_V_1_Ch_v2-4c_1anC_Ch_1B_2Br_Ch_1x1x2,0.13868,0.683,1.15811,1175.53,1361.39,14.56371,13.84852,15297.16071,,,,472,,36,32,32,Br10C34H10O4V1,0.017241379,4,4c_V_1_Ch,232,O:C(:O)C1:C:C(Br):C(:C:C:1Br)C12C3:C:C(Br):C(:C:C:3Br)C3(C4:C:C(Br):C(:C:C:4Br)C(:O):O)C4:C:C(Br):C(:C:C:4Br)C4(C5:C:C(Br):C(:C:C:5Br)C(:O):O)C5:C:C(Br):C(:C:C:5Br)C(C5:C:C(Br):C(:C:C:5Br)C(:O):O)(C5:C:C(Br):C1:C:C:5Br)C1:C:C(Br):C(:C:C:1Br)C1(C5:C:C(Br):C(:C:C:5Br)C(:O):O)C5:C:C(Br):C(:C:C:5Br)C(C5:C:C(Br):C(:C:C:5Br)C(:O):O)(C5:C:C(Br):C2:C:C:5Br)C2:C:C(Br):C(:C:C:2Br)C(C2:C:C(Br):C(:C:C:2Br)C(:O):O)(C2:C:C(Br):C3:C:C:2Br)C2:C:C(Br):C(:C:C:2Br)C(C2:C:C(Br):C(:C:C:2Br)C(:O):O)(C2:C:C(Br):C4:C:C:2Br)C2:C:C(Br):C1:C:C:2Br,1
SR_asv_v1-4c_Ni_1_Ch_v2-4c_bicyclooctane_Ch_1B_2CN_Ch_ntn_edge_2x2x2,0.19554,0.66132,0.749937,1755.42,1316.45,12.00871,9.6859,51394.9267,,,,2144,,144,128,128,C42H14N6Ni1O4,0.015151515,4,4c_Ni_1_Ch,264,N#CC1:C:C2C3=CC45C=C(C(:O):O)C3C(=C4)C3:C:C(C#N):C(:C:C:3C#N)C3=CC46C=C(C(:O):O)C3C(=C4)C3:C:C(C#N):C(:C:C:3C#N)C3=CC47C=C(C(:O):O)C3C(=C4)C3:C:C(C#N):C(:C:C:3C#N)C3=CC4(C=C(C(:O):O)C3C(=C4)C:1:C:C:2C#N)C1:C:C(C#N):C(:C:C:1C#N)C12C=C(C(:O):O)C3C(=C1)C1:C:C(C#N):C(:C:C:1C#N)C1=CC4(C=C(C(:O):O)C1C(=C4)C1:C:C(C#N):C(:C:C:1C#N)C1=CC4(C=C(C(:O):O)C1C(=C4)C1:C:C(C#N):C(:C:C:1C#N)C1=CC4(C=C(C(:O):O)C1C(=C4)C1:C:C(C#N):C(:C:C:1C#N)C3=C2)C1:C:C(C#N):C7:C:C:1C#N)C1:C:C(C#N):C6:C:C:1C#N)C1:C:C(C#N):C5:C:C:1C#N,1
SR_bam_v1-4c_In_1_Ch_v2-4c_1anC_Ch_1B_2NH2_Ch_1x1x1,0.05479,0.87534,0.301603,3687.69,1112.22,49.02983,47.03644,112087.8429,,,,1680,,192,192,192,C29H24In1N8O8,0.014492754,4,4c_In_1_Ch,"312,20",NC1:C:C(:C(N):C:C:1C(:O):O)C12C3:C:C(N):C(:C:C:3N)C3(C4:C:C(N):C(:C:C:4N)C(:O):O)C4:C:C(N):C(:C:C:4N)C4(C5:C:C(N):C(:C:C:5N)C(:O):O)C5:C:C(N):C(:C:C:5N)C(C5:C:C(N):C(:C:C:5N)C(:O):O)(C5:C:C(N):C1:C:C:5N)C1:C:C(N):C(:C:C:1N)C1(C5:C:C(N):C(:C:C:5N)C(:O):O)C5:C:C(N):C(:C:C:5N)C(C5:C:C(N):C(:C:C:5N)C(:O):O)(C5:C:C(N):C2:C:C:5N)C2:C:C(N):C(:C:C:2N)C(C2:C:C(N):C(:C:C:2N)C(:O):O)(C2:C:C(N):C3:C:C:2N)C2:C:C(N):C(:C:C:2N)C(C2:C:C(N):C(:C:C:2N)C(:O):O)(C2:C:C(N):C4:C:C:2N)C2:C:C(N):C1:C:C:2N___NC1:C:C(C(:O):O):C(N):C:C:1C(:O):O,1
SR_baae_v1-6c_Zr_1_Ch_v2-6c_Zr_1_Ch_1TrU_Ch_2TrU_Ch_1x1x1,0.07105,0.79628,0.650017,2464.07,1601.68,18.18404,12.22659,77113.57767,,,,1792,,1152,1152,288,C22H33O48Zr9,0.087378641,6,6c_Zr_1_Ch,"10,8",O:C(:O)C#CC#CC(:O):O___O:C(:O)C#CC(:O):O,1
SR_baae_v1-6c_Zr_1_Ch_v2-6c_Zr_1_Ch_1B_2CF3_Ch_ntn_edge_1x1x2,0.15897,0.6533,1.11964,1362.19,1525.16,11.02191,7.61295,102260.6632,,,,4192,,2304,2304,576,C25F12H37O48Zr9,0.073770492,6,6c_Zr_1_Ch,"6,22",O:C(:O)C(:O):O___O:C(:O)C1:C:C(:C(:C:C:1C(F)(F)F)C(:O):O)C(F)(F)F,1
SR_atv_v1-4c_1anC_Ch_v2-4c_In_1_Ch_1B_4Br_Ch_1x2x1,0.1391,0.5719,1.91378,618.409,1183.5,12.11861,10.03967,37010.57033,,,,1200,,128,128,128,Br24C42In1O8,0.013513514,4,4c_In_1_Ch,"464,16",O:C(:O)C1:C(Br):C(Br):C(:C(Br):C:1Br)C12C3:C(Br):C(Br):C(:C(Br):C:3Br)C3(C4:C(Br):C(Br):C(C(:O):O):C(Br):C:4Br)C4:C(Br):C(Br):C(:C(Br):C:4Br)C4(C5:C(Br):C(Br):C(C(:O):O):C(Br):C:5Br)C5:C(Br):C(Br):C(:C(Br):C:5Br)C(C5:C(Br):C(Br):C(C(:O):O):C(Br):C:5Br)(C5:C(Br):C(Br):C1:C(Br):C:5Br)C1:C(Br):C(Br):C(:C(Br):C:1Br)C1(C5:C(Br):C(Br):C(C(:O):O):C(Br):C:5Br)C5:C(Br):C(Br):C(:C(Br):C:5Br)C5(C6:C(Br):C(Br):C(C(:O):O):C(Br):C:6Br)C6:C(Br):C(Br):C(:C(Br):C:6Br)C(C6:C(Br):C(Br):C(C(:O):O):C(Br):C:6Br)(C6:C(Br):C(Br):C3:C(Br):C:6Br)C3:C(Br):C(Br):C(:C(Br):C:3Br)C(C3:C(Br):C(Br):C(C(:O):O):C(Br):C:3Br)(C3:C(Br):C(Br):C1:C(Br):C:3Br)C1:C(Br):C(Br):C(:C(Br):C:1Br)C1(C3:C(Br):C(Br):C(C(:O):O):C(Br):C:3Br)C3:C(Br):C(Br):C(:C(Br):C:3Br)C3(C6:C(Br):C(Br):C(C(:O):O):C(Br):C:6Br)C6:C(Br):C(Br):C(:C(Br):C:6Br)C6(C7:C(Br):C(Br):C(C(:O):O):C(Br):C:7Br)C7:C(Br):C(Br):C(:C(Br):C:7Br)C(C7:C(Br):C(Br):C(C(:O):O):C(Br):C:7Br)(C7:C(Br):C(Br):C2:C(Br):C:7Br)C2:C(Br):C(Br):C(:C(Br):C:2Br)C(C2:C(Br):C(Br):C(C(:O):O):C(Br):C:2Br)(C2:C(Br):C(Br):C(:C(Br):C:2Br)C(C2:C(Br):C(Br):C(C(:O):O):C(Br):C:2Br)(C2:C(Br):C(Br):C4:C(Br):C:2Br)C2:C(Br):C(Br):C6:C(Br):C:2Br)C2:C(Br):C(Br):C(:C(Br):C:2Br)C(C2:C(Br):C(Br):C(C(:O):O):C(Br):C:2Br)(C2:C(Br):C(Br):C(:C(Br):C:2Br)C(C2:C(Br):C(Br):C(C(:O):O):C(Br):C:2Br)(C2:C(Br):C(Br):C5:C(Br):C:2Br)C2:C(Br):C(Br):C3:C(Br):C:2Br)C2:C(Br):C(Br):C1:C(Br):C:2Br___O:C(:O)C1:C(Br):C(Br):C(C(:O):O):C(Br):C:1Br,1
SR_baae_v1-6c_Zr_1_Ch_v2-6c_Zr_1_Ch_1B_2SH_Ch_1x1x1,0.07378,0.77762,0.663073,2055.75,1363.11,18.6473,12.55442,94619.0104,,,,2448,,1152,1152,288,C12H17O16S3Zr3,0.0625,6,6c_Zr_1_Ch,18,O:C(:O)C1:C:C(S):C(:C:C:1S)C(:O):O,1
SR_bam_v1-4c_In_1_Ch_v2-4c_In_1_Ch_1TrU_Ch_1x1x1,0.04366,0.93174,0.223706,4210.57,941.93,57.15985,54.36934,140355.9466,,,,816,,384,384,384,C8In1O8,0.0625,4,4c_In_1_Ch,8,O:C(:O)C#CC(:O):O,1
SR_bap_v1-4c_bicyclooctane_Ch_v2-4c_In_1_Ch_1TrU_Ch_2TrU_Ch_1DoU_Ch_1x1x1,0.05053,0.9072,0.259757,5050.93,1312.01,29.16425,26.9564,77309.74398,,,,656,,192,192,192,C45H10In3O24,0.037974684,4,4c_In_1_Ch,"10,68",O:C(:O)C#CC#CC(:O):O___O:C(:O)C=CC1=CC2(C#CC34C=C(C=CC(:O):O)C(C(C=CC(:O):O)=C3)C(C=CC(:O):O)=C4)C=C(C=CC(:O):O)C1C(C=CC(:O):O)=C2,1
SR_bas_v1-4c_In_1_Ch_v2-4c_bicyclooctane_Ch_1B_2CN_Ch_1x1x1,0.05608,0.8714,0.291281,3478.58,1013.25,40.97147,24.23146,85387.36784,,,,1308,,96,96,96,C68H20In1N12O8,0.009259259,4,4c_In_1_Ch,,None,1
SR_baa_v1-4c_Cd_1_Ch_v2-4c_1anC_Ch_1B_2NO2_Ch_1x1x2,0.15121,0.56356,1.12817,0,0,5.65948,3.45037,15441.25364,,,,792,,64,64,64,C42Cd1H12N12O32,0.010204082,4,4c_Cd_1_Ch,196,O:C(:O)C1:C:C(:C(:C:C:1N(:O):O)C1(C2:C:C(:C(:C:C:2N(:O):O)C(:O):O)N(:O):O)C2:C:C(:C(:C:C:2N(:O):O)C(C2:C:C(:C(:C:C:2N(:O):O)C(:O):O)N(:O):O)(C2:C:C(:C(:C:C:2N(:O):O)C(:O):O)N(:O):O)C2:C:C(:C(:C:C:2N(:O):O)C(C2:C:C(:C(:C:C:2N(:O):O)C(:O):O)N(:O):O)(C2:C:C(:C(:C:C:2N(:O):O)C(:O):O)N(:O):O)C2:C:C(:C(:C:C:2N(:O):O)C(C2:C:C(:C(:C:C:2N(:O):O)C(:O):O)N(:O):O)(C2:C:C(:C(:C:C:2N(:O):O)C(:O):O)N(:O):O)C2:C:C(:C1:C:C:2N(:O):O)N(:O):O)N(:O):O)N(:O):O)N(:O):O)N(:O):O,1
SR_bat_v1-4c_In_1_Ch_v2-4c_1anC_Ch_2B_2CN_Ch_ntn_edge_1x1x1,0.04592,0.8545,0.372608,2921.96,1088.75,38.88248,19.28104,72875.01792,,,,1200,,192,192,192,C29H6In1N6O8,0.020408163,4,4c_In_1_Ch,,None,1
SR_bac_v1-4c_bicyclooctane_Ch_v2-4c_In_1_Ch_ntn_edge_2B_2F_Ch_1x1x1,0.05547,0.90212,0.258825,5220.65,1351.24,25.34401,19.0396,80151.00716,,,,828,,96,96,96,C38F10H12In1O8,0.014705882,4,4c_In_1_Ch,"26,174",O:C(:O)C1:C:C(F):C(:C:C:1F)C1:C:C(F):C(:C:C:1F)C(:O):O___O:C(:O)C1:C:C(F):C(:C:C:1F)C1:C:C(F):C(:C:C:1F)C1=CC2(C=C3C4=CC5(C=C(C6=CC7(C=C(C(=C2)C31)C6C(=C7)C1:C:C(F):C(:C:C:1F)C1:C:C(F):C(:C:C:1F)C(:O):O)C1:C:C(F):C(:C:C:1F)C1:C:C(F):C(:C:C:1F)C(:O):O)C4C(=C5)C1:C:C(F):C(:C:C:1F)C1:C:C(F):C(:C:C:1F)C(:O):O)C1:C:C(F):C(:C:C:1F)C1:C:C(F):C(:C:C:1F)C(:O):O)C1:C:C(F):C(:C:C:1F)C1:C:C(F):C(:C:C:1F)C(:O):O,1
SR_baa_v1-4c_Cd_1_Ch_v2-4c_1anC_Ch_4B_fused_8H_Ch_1x1x2,0.14758,0.83924,0.347808,5394.57,1876.28,13.56252,10.7662,57824.41743,,,,1272,,64,64,64,C102Cd1H48O8,0.006329114,4,4c_Cd_1_Ch,316,O:C(:O)C1:C:C2:C:C:C3:C:C(:C:C4:C:C:C(:C:1):C:2:C:3:4)C1(C2:C:C3:C:C:C4:C:C(:C:C5:C:C:C(:C:2):C:3:C:4:5)C(:O):O)C2:C:C3:C:C:C4:C:C(:C:C5:C:C:C(:C:2):C:3:C:4:5)C(C2:C:C3:C:C:C4:C:C(:C:C5:C:C:C(:C:2):C:3:C:4:5)C(:O):O)(C2:C:C3:C:C:C4:C:C(:C:C5:C:C:C(:C:2):C:3:C:4:5)C(:O):O)C2:C:C3:C:C:C4:C:C(:C:C5:C:C:C(:C:2):C:3:C:4:5)C(C2:C:C3:C:C:C4:C:C(:C:C5:C:C:C(:C:2):C:3:C:4:5)C(:O):O)(C2:C:C3:C:C:C4:C:C(:C:C5:C:C:C(:C:2):C:3:C:4:5)C(:O):O)C2:C:C3:C:C:C4:C:C(:C:C5:C:C:C(:C:2):C:3:C:4:5)C(C2:C:C3:C:C:C4:C:C(:C:C5:C:C:C(:C:2):C:3:C:4:5)C(:O):O)(C2:C:C3:C:C:C4:C:C(:C:C5:C:C:C(:C:2):C:3:C:4:5)C(:O):O)C2:C:C3:C:C:C4:C:C1:C:C1:C:C:C(:C:2):C:3:C:4:1,1
SR_bam_v1-4c_In_1_Ch_v2-4c_1anC_Ch_2B_4Br_Ch_1x1x1,0.02016,0.90844,0.415592,1775.49,737.88,77.51086,75.68677,386309.7728,,,,2256,,192,192,192,Br32C53In1O8,0.010752688,4,4c_In_1_Ch,"432,26",O:C(:O)C1:C(Br):C(Br):C(:C(Br):C:1Br)C1:C(Br):C(Br):C(:C(Br):C:1Br)C12C3:C(Br):C(Br):C(:C(Br):C:3Br)C3:C(Br):C(Br):C(:C(Br):C:3Br)C3(C4:C(Br):C(Br):C(:C(Br):C:4Br)C4:C(Br):C(Br):C(C(:O):O):C(Br):C:4Br)C4:C(Br):C(Br):C(:C(Br):C:4Br)C4:C(Br):C(Br):C(:C(Br):C:4Br)C4(C5:C(Br):C(Br):C(:C(Br):C:5Br)C5:C(Br):C(Br):C(C(:O):O):C(Br):C:5Br)C5:C(Br):C(Br):C(:C(Br):C:5Br)C5:C(Br):C(Br):C(:C(Br):C:5Br)C(C5:C(Br):C(Br):C(:C(Br):C:5Br)C5:C(Br):C(Br):C(C(:O):O):C(Br):C:5Br)(C5:C(Br):C(Br):C(:C(Br):C:5Br)C5:C(Br):C(Br):C1:C(Br):C:5Br)C1:C(Br):C(Br):C(:C(Br):C:1Br)C1:C(Br):C(Br):C(:C(Br):C:1Br)C1(C5:C(Br):C(Br):C(:C(Br):C:5Br)C5:C(Br):C(Br):C(C(:O):O):C(Br):C:5Br)C5:C(Br):C(Br):C(:C(Br):C:5Br)C5:C(Br):C(Br):C(:C(Br):C:5Br)C(C5:C(Br):C(Br):C(:C(Br):C:5Br)C5:C(Br):C(Br):C(C(:O):O):C(Br):C:5Br)(C5:C(Br):C(Br):C(:C(Br):C:5Br)C5:C(Br):C(Br):C2:C(Br):C:5Br)C2:C(Br):C(Br):C(:C(Br):C:2Br)C2:C(Br):C(Br):C(:C(Br):C:2Br)C(C2:C(Br):C(Br):C(:C(Br):C:2Br)C2:C(Br):C(Br):C(C(:O):O):C(Br):C:2Br)(C2:C(Br):C(Br):C(:C(Br):C:2Br)C2:C(Br):C(Br):C3:C(Br):C:2Br)C2:C(Br):C(Br):C(:C(Br):C:2Br)C2:C(Br):C(Br):C(:C(Br):C:2Br)C(C2:C(Br):C(Br):C(:C(Br):C:2Br)C2:C(Br):C(Br):C(C(:O):O):C(Br):C:2Br)(C2:C(Br):C(Br):C(:C(Br):C:2Br)C2:C(Br):C(Br):C4:C(Br):C:2Br)C2:C(Br):C(Br):C(:C(Br):C:2Br)C2:C(Br):C(Br):C1:C(Br):C:2Br___O:C(:O)C1:C(Br):C(Br):C(:C(Br):C:1Br)C1:C(Br):C(Br):C(C(:O):O):C(Br):C:1Br,1
SR_ban_v1-4c_Cd_1_Ch_v2-4c_bicyclooctane_Ch_1B_2Br_Ch_1x1x1,0.032,0.88114,0.413598,2807.76,1161.28,28.97606,26.01101,170157.848,,,,2080,,256,256,256,Br8C36Cd1H12O8,0.015625,4,4c_Cd_1_Ch,"16,384",O:C(:O)C1:C:C(Br):C(:C:C:1Br)C(:O):O___O:C(:O)C1:C:C(Br):C(:C:C:1Br)C1=CC23C=C(C4:C:C(Br):C(:C:C:4Br)C4=CC5(C=C(C6:C:C(Br):C(:C:C:6Br)C(:O):O)C4C(=C5)C4:C:C(Br):C(:C:C:4Br)C(:O):O)C4:C:C(Br):C(:C:C:4Br)C45C=C(C6:C:C(Br):C(:C:C:6Br)C6=CC7(C=C(C8:C:C(Br):C(:C:C:8Br)C(:O):O)C6C(=C7)C6:C:C(Br):C(:C:C:6Br)C(:O):O)C6:C:C(Br):C(:C:C:6Br)C67C=C(C8:C:C(Br):C(:C:C:8Br)C8=CC9(C=C(C%10:C:C(Br):C(:C:C:%10Br)C(:O):O)C8C(=C9)C8:C:C(Br):C(:C:C:8Br)C(:O):O)C8:C:C(Br):C(:C:C:8Br)C89C=C(C%10:C:C(Br):C(:C:C:%10Br)C%10=CC%11(C=C(C%12:C:C(Br):C(:C:C:%12Br)C(:O):O)C%10C(=C%11)C%10:C:C(Br):C(:C:C:%10Br)C(:O):O)C%10:C:C(Br):C2:C:C:%10Br)C(C(=C8)C2:C:C(Br):C(:C:C:2Br)C(:O):O)C(=C9)C2:C:C(Br):C(:C:C:2Br)C(:O):O)C(C(=C6)C2:C:C(Br):C(:C:C:2Br)C(:O):O)C(=C7)C2:C:C(Br):C(:C:C:2Br)C(:O):O)C(C(=C4)C2:C:C(Br):C(:C:C:2Br)C(:O):O)C(=C5)C2:C:C(Br):C(:C:C:2Br)C(:O):O)C1C(=C3)C1:C:C(Br):C(:C:C:1Br)C(:O):O,1
SR_bat_v1-4c_Cd_1_Ch_v2-4c_bicyclooctane_Ch_1B_2Br_Ch_ntn_edge_1x1x1,0.03463,0.88146,0.384972,2278.52,877.167,43.91533,23.70079,76548.14946,,,,960,,192,192,192,Br3C21Cd1H7O8,0.025641026,4,4c_Cd_1_Ch,,None,1
SR_bay_v1-4c_bicyclooctane_Ch_v2-4c_In_1_Ch_1B_4Br_Ch_ntn_edge_2x2x2,0.09339,0.71654,1.1333,1712.68,1940.98,12.97908,7.17852,121395.3552,,,,2592,,768,768,768,Br12C38H4In3O24,0.038461538,4,4c_In_1_Ch,"6,102",O:C(:O)C(:O):O___O:C(:O)C1:C(Br):C(Br):C(C2=CC3(C=C(C4=CC5(C=C(C6:C(Br):C(Br):C(C(:O):O):C(Br):C:6Br)C4C(=C5)C4:C(Br):C(Br):C(C(:O):O):C(Br):C:4Br)C4:C(Br):C(Br):C(C(:O):O):C(Br):C:4Br)C2C(=C3)C2:C(Br):C(Br):C(C(:O):O):C(Br):C:2Br)C2:C(Br):C(Br):C(C(:O):O):C(Br):C:2Br):C(Br):C:1Br,1
SR_baa_v1-4c_Cd_1_Ch_v2-4c_1anC_Ch_1B_2DoU_Ch_1x1x2,0.09492,0.8885,0.226091,7214.69,1631.18,16.02246,12.38241,63571.43395,,,,984,,64,64,64,C66Cd1H48O8,0.008196721,4,4c_Cd_1_Ch,244,O:C(:O)C=CC1:C:C:C(C=CC2(C=CC3:C:C:C(C=CC(:O):O):C:C:3)C=CC3:C:C:C(C=CC(C=CC4:C:C:C(C=CC(:O):O):C:C:4)(C=CC4:C:C:C(C=CC(:O):O):C:C:4)C=CC4:C:C:C(C=CC(C=CC5:C:C:C(C=CC(:O):O):C:C:5)(C=CC5:C:C:C(C=CC(:O):O):C:C:5)C=CC5:C:C:C(C=CC(C=CC6:C:C:C(C=CC(:O):O):C:C:6)(C=CC6:C:C:C(C=CC(:O):O):C:C:6)C=CC6:C:C:C(C=C2):C:C:6):C:C:5):C:C:4):C:C:3):C:C:1,1
SR_bbd_v1-4c_bicyclooctane_Ch_v2-4c_In_1_Ch_1B_2SH_Ch_1x1x1,0.07862,0.83344,0.428747,3908.54,1675.78,23.33751,17.17355,47197.30672,,,,880,,128,128,128,C26H14In1O8S6,0.018518519,4,4c_In_1_Ch,"18,432",O:C(:O)C1:C:C(S):C(:C:C:1S)C(:O):O___O:C(:O)C1:C:C(S):C(:C:C:1S)C1=CC23C=C(C4:C:C(S):C(:C:C:4S)C4=CC5(C=C(C6:C:C(S):C(:C:C:6S)C(:O):O)C4C(=C5)C4:C:C(S):C(:C:C:4S)C(:O):O)C4:C:C(S):C(:C:C:4S)C45C=C(C6:C:C(S):C(:C:C:6S)C6=CC7(C=C(C8:C:C(S):C(:C:C:8S)C(:O):O)C6C(=C7)C6:C:C(S):C(:C:C:6S)C(:O):O)C6:C:C(S):C(:C:C:6S)C67C=C(C8:C:C(S):C(:C:C:8S)C8=CC9(C=C(C%10:C:C(S):C(:C:C:%10S)C(:O):O)C8C(=C9)C8:C:C(S):C(:C:C:8S)C(:O):O)C8:C:C(S):C(:C:C:8S)C89C=C(C%10:C:C(S):C(:C:C:%10S)C%10=CC%11(C=C(C%12:C:C(S):C(:C:C:%12S)C(:O):O)C%10C(=C%11)C%10:C:C(S):C(:C:C:%10S)C(:O):O)C%10:C:C(S):C2:C:C:%10S)C(C(=C8)C2:C:C(S):C(:C:C:2S)C(:O):O)C(=C9)C2:C:C(S):C(:C:C:2S)C(:O):O)C(C(=C6)C2:C:C(S):C(:C:C:2S)C(:O):O)C(=C7)C2:C:C(S):C(:C:C:2S)C(:O):O)C(C(=C4)C2:C:C(S):C(:C:C:2S)C(:O):O)C(=C5)C2:C:C(S):C(:C:C:2S)C(:O):O)C1C(=C3)C1:C:C(S):C(:C:C:1S)C(:O):O,1
SR_atv_v1-4c_Cd_1_Ch_v2-4c_1anC_Ch_2B_2CF3_Ch_1x1x1,0.05947,0.8373,0.448104,3773.54,1690.94,18.09529,12.6869,92920.38287,,,,1752,,128,128,128,C105Cd2F72H24O16,0.00921659,4,4c_Cd_1_Ch,"38,412",O:C(:O)C1:C:C(:C(:C:C:1C(F)(F)F)C1:C:C(:C(:C:C:1C(F)(F)F)C(:O):O)C(F)(F)F)C(F)(F)F___O:C(:O)C1:C:C(:C(:C:C:1C(F)(F)F)C1:C:C(:C(:C:C:1C(F)(F)F)C1(C2:C:C(:C(:C:C:2C(F)(F)F)C2:C:C(:C(:C:C:2C(F)(F)F)C(:O):O)C(F)(F)F)C(F)(F)F)C2:C:C(:C(:C:C:2C(F)(F)F)C2:C:C(:C(:C:C:2C(F)(F)F)C(C2:C:C(:C(:C:C:2C(F)(F)F)C2:C:C(:C(:C:C:2C(F)(F)F)C(:O):O)C(F)(F)F)C(F)(F)F)(C2:C:C(:C(:C:C:2C(F)(F)F)C2:C:C(:C(:C:C:2C(F)(F)F)C(:O):O)C(F)(F)F)C(F)(F)F)C2:C:C(:C(:C:C:2C(F)(F)F)C2:C:C(:C(:C:C:2C(F)(F)F)C(C2:C:C(:C(:C:C:2C(F)(F)F)C2:C:C(:C(:C:C:2C(F)(F)F)C(:O):O)C(F)(F)F)C(F)(F)F)(C2:C:C(:C(:C:C:2C(F)(F)F)C2:C:C(:C(:C:C:2C(F)(F)F)C(:O):O)C(F)(F)F)C(F)(F)F)C2:C:C(:C(:C:C:2C(F)(F)F)C2:C:C(:C(:C:C:2C(F)(F)F)C(C2:C:C(:C(:C:C:2C(F)(F)F)C2:C:C(:C(:C:C:2C(F)(F)F)C(:O):O)C(F)(F)F)C(F)(F)F)(C2:C:C(:C(:C:C:2C(F)(F)F)C2:C:C(:C(:C:C:2C(F)(F)F)C(:O):O)C(F)(F)F)C(F)(F)F)C2:C:C(:C(:C:C:2C(F)(F)F)C2:C:C(:C1:C:C:2C(F)(F)F)C(F)(F)F)C(F)(F)F)C(F)(F)F)C(F)(F)F)C(F)(F)F)C(F)(F)F)C(F)(F)F)C(F)(F)F)C(F)(F)F)C(F)(F)F,1
SR_bbd_v1-4c_Cd_1_Ch_v2-4c_Cd_1_Ch_ntn_edge_1B_2NH2_Ch_1x1x2,0.06183,0.82382,0.519872,3539.77,1840.23,20.60692,17.60696,60498.69247,,,,1296,,384,384,384,C10Cd1H6N2O8,0.038461538,4,4c_Cd_1_Ch,"20,6",NC1:C:C(C(:O):O):C(N):C:C:1C(:O):O___O:C(:O)C(:O):O,1
SR_att_v1-4c_Cd_1_Ch_v2-4c_bicyclooctane_Ch_1B_2CF3_Ch_1x1x1,0.05818,0.81578,0.52872,3322.62,1756.74,16.53819,12.0556,24502.07314,,,,536,,64,64,64,C32Cd1F18H8O8,0.015151515,4,4c_Cd_1_Ch,"22,264",O:C(:O)C1:C:C(:C(:C:C:1C(F)(F)F)C(:O):O)C(F)(F)F___O:C(:O)C1:C:C(:C(:C:C:1C(F)(F)F)C1=CC23C=C(C4:C:C(:C(:C:C:4C(F)(F)F)C4=CC5(C=C(C6:C:C(:C(:C:C:6C(F)(F)F)C(:O):O)C(F)(F)F)C4C(=C5)C4:C:C(:C(:C:C:4C(F)(F)F)C(:O):O)C(F)(F)F)C4:C:C(:C(:C:C:4C(F)(F)F)C45C=C(C6:C:C(:C(:C:C:6C(F)(F)F)C6=CC7(C=C(C8:C:C(:C(:C:C:8C(F)(F)F)C(:O):O)C(F)(F)F)C6C(=C7)C6:C:C(:C(:C:C:6C(F)(F)F)C(:O):O)C(F)(F)F)C6:C:C(:C2:C:C:6C(F)(F)F)C(F)(F)F)C(F)(F)F)C(C(=C4)C2:C:C(:C(:C:C:2C(F)(F)F)C(:O):O)C(F)(F)F)C(=C5)C2:C:C(:C(:C:C:2C(F)(F)F)C(:O):O)C(F)(F)F)C(F)(F)F)C(F)(F)F)C1C(=C3)C1:C:C(:C(:C:C:1C(F)(F)F)C(:O):O)C(F)(F)F)C(F)(F)F,1
SR_bal_v1-4c_bicyclooctane_Ch_v2-4c_Cd_1_Ch_1B_2SH_Ch_2x2x2,0.06057,0.82962,0.447414,3705.38,1657.84,17.95876,12.85655,146172.0101,,,,2352,,384,384,384,C68Cd3H36O24S16,0.020833333,4,4c_Cd_1_Ch,"18,126",O:C(:O)C1:C:C(S):C(:C:C:1S)C(:O):O___O:C(:O)C1:C:C(S):C(:C:C:1S)C1=CC2(C=C(C3:C:C(S):C(:C:C:3S)C3=CC4(C=C(C5:C:C(S):C(:C:C:5S)C(:O):O)C3C(=C4)C3:C:C(S):C(:C:C:3S)C(:O):O)C3:C:C(S):C(:C:C:3S)C(:O):O)C1C(=C2)C1:C:C(S):C(:C:C:1S)C(:O):O)C1:C:C(S):C(:C:C:1S)C(:O):O,1
SR_bbd_v1-4c_Cd_1_Ch_v2-4c_Cd_1_Ch_ntn_edge_1B_2F_Ch_1x1x2,0.05976,0.8319,0.527255,3512.6,1852.04,21.16479,18.46279,60554.26065,,,,1104,,384,384,384,C10Cd1F2H2O8,0.045454545,4,4c_Cd_1_Ch,"6,16",O:C(:O)C(:O):O___O:C(:O)C1:C:C(F):C(:C:C:1F)C(:O):O,1